 Entering Gaussian System, Link 0=/Applications/Gaussian09/g09/g09
 Input=RhCpMe5Cl2PMe3.com
 Output=RhCpMe5Cl2PMe3.log
 Initial command:
 /Applications/Gaussian09/g09/l1.exe /Users/rpaton/.Scratch/Gau-22973.inp -scrdir=/Users/rpaton/.Scratch/
 Entering Link 1 = /Applications/Gaussian09/g09/l1.exe PID=     22974.
  
 Copyright (c) 1988,1990,1992,1993,1995,1998,2003,2009,2010,
            Gaussian, Inc.  All Rights Reserved.
  
 This is part of the Gaussian(R) 09 program.  It is based on
 the Gaussian(R) 03 system (copyright 2003, Gaussian, Inc.),
 the Gaussian(R) 98 system (copyright 1998, Gaussian, Inc.),
 the Gaussian(R) 94 system (copyright 1995, Gaussian, Inc.),
 the Gaussian 92(TM) system (copyright 1992, Gaussian, Inc.),
 the Gaussian 90(TM) system (copyright 1990, Gaussian, Inc.),
 the Gaussian 88(TM) system (copyright 1988, Gaussian, Inc.),
 the Gaussian 86(TM) system (copyright 1986, Carnegie Mellon
 University), and the Gaussian 82(TM) system (copyright 1983,
 Carnegie Mellon University). Gaussian is a federally registered
 trademark of Gaussian, Inc.
  
 This software contains proprietary and confidential information,
 including trade secrets, belonging to Gaussian, Inc.
  
 This software is provided under written license and may be
 used, copied, transmitted, or stored only in accord with that
 written license.
  
 The following legend is applicable only to US Government
 contracts under FAR:
  
                    RESTRICTED RIGHTS LEGEND
  
 Use, reproduction and disclosure by the US Government is
 subject to restrictions as set forth in subparagraphs (a)
 and (c) of the Commercial Computer Software - Restricted
 Rights clause in FAR 52.227-19.
  
 Gaussian, Inc.
 340 Quinnipiac St., Bldg. 40, Wallingford CT 06492
  
  
 ---------------------------------------------------------------
 Warning -- This program may not be used in any manner that
 competes with the business of Gaussian, Inc. or will provide
 assistance to any competitor of Gaussian, Inc.  The licensee
 of this program is prohibited from giving any competitor of
 Gaussian, Inc. access to this program.  By using this program,
 the user acknowledges that Gaussian, Inc. is engaged in the
 business of creating and licensing software in the field of
 computational chemistry and represents and warrants to the
 licensee that it is not a competitor of Gaussian, Inc. and that
 it will not use this program in any manner prohibited above.
 ---------------------------------------------------------------
  

 Cite this work as:
 Gaussian 09, Revision B.01,
 M. J. Frisch, G. W. Trucks, H. B. Schlegel, G. E. Scuseria, 
 M. A. Robb, J. R. Cheeseman, G. Scalmani, V. Barone, B. Mennucci, 
 G. A. Petersson, H. Nakatsuji, M. Caricato, X. Li, H. P. Hratchian, 
 A. F. Izmaylov, J. Bloino, G. Zheng, J. L. Sonnenberg, M. Hada, 
 M. Ehara, K. Toyota, R. Fukuda, J. Hasegawa, M. Ishida, T. Nakajima, 
 Y. Honda, O. Kitao, H. Nakai, T. Vreven, J. A. Montgomery, Jr., 
 J. E. Peralta, F. Ogliaro, M. Bearpark, J. J. Heyd, E. Brothers, 
 K. N. Kudin, V. N. Staroverov, T. Keith, R. Kobayashi, J. Normand, 
 K. Raghavachari, A. Rendell, J. C. Burant, S. S. Iyengar, J. Tomasi, 
 M. Cossi, N. Rega, J. M. Millam, M. Klene, J. E. Knox, J. B. Cross, 
 V. Bakken, C. Adamo, J. Jaramillo, R. Gomperts, R. E. Stratmann, 
 O. Yazyev, A. J. Austin, R. Cammi, C. Pomelli, J. W. Ochterski, 
 R. L. Martin, K. Morokuma, V. G. Zakrzewski, G. A. Voth, 
 P. Salvador, J. J. Dannenberg, S. Dapprich, A. D. Daniels, 
 O. Farkas, J. B. Foresman, J. V. Ortiz, J. Cioslowski, 
 and D. J. Fox, Gaussian, Inc., Wallingford CT, 2010.
 
 ******************************************
 Gaussian 09:  EM64M-G09RevB.01 12-Aug-2010
                10-Nov-2016 
 ******************************************
 %chk=rovis199_wB97XD_DIAG_nocenter.chk
 ------------------------
 # geom=connectivity test
 ------------------------
 1/38=1,57=2/1;
 2/12=2,17=6,18=5,40=1/2;
 3/11=9,16=1,25=1,30=1/1,2,3;
 4//1;
 5/5=2,38=5/2;
 6/7=2,8=2,9=2,10=2,28=1/1;
 99/5=1,9=1/99;
 ---------------
 rovis199_wB97XD
 ---------------
 Symbolic Z-matrix:
 Charge =  0 Multiplicity = 1
 Rh                   -0.26768  -0.08154   0. 
 Cl                   -1.75085   0.51301   1.80602 
 C                    -0.09301  -2.21203   0.70519 
 C                     1.01583  -1.37937   1.15865 
 C                     1.74578  -0.95226   0. 
 C                    -1.05005  -2.89162   1.63003 
 H                    -1.81496  -3.45777   1.07859 
 H                    -1.56658  -2.14136   2.2534 
 H                    -0.50921  -3.58907   2.29375 
 C                     1.38732  -1.18536   2.59497 
 H                     1.8458   -2.1012    3.01076 
 H                     0.49096  -0.94151   3.18727 
 H                     2.10452  -0.3588    2.71726 
 C                     3.08613  -0.28757   0. 
 H                     3.23855   0.33672   0.89319 
 H                     3.23855   0.33672  -0.89319 
 P                     0.25782   2.15185   0. 
 C                    -1.15515   3.3004    0. 
 H                    -0.79747   4.34447   0. 
 C                     1.23634   2.67061   1.45468 
 H                     2.20196   2.1417    1.47764 
 H                     0.65933   2.39554   2.35289 
 H                     1.42081   3.75868   1.44837 
 C                    -0.09301  -2.21203  -0.70519 
 C                     1.01583  -1.37937  -1.15865 
 C                    -1.05005  -2.89162  -1.63003 
 H                    -1.81496  -3.45777  -1.07859 
 H                    -1.56658  -2.14136  -2.2534 
 H                    -0.50921  -3.58907  -2.29375 
 C                     1.38732  -1.18536  -2.59497 
 H                     1.8458   -2.1012   -3.01076 
 H                     0.49096  -0.94151  -3.18727 
 H                     2.10452  -0.3588   -2.71726 
 H                     3.87547  -1.06068   0. 
 H                    -1.76559   3.09464  -0.89228 
 H                    -1.76559   3.09464   0.89228 
 C                     1.23634   2.67061  -1.45468 
 H                     2.20196   2.1417   -1.47764 
 H                     0.65933   2.39554  -2.35289 
 H                     1.42081   3.75868  -1.44837 
 Cl                   -1.75085   0.51301  -1.80602 
 
                          Input orientation:                          
 ---------------------------------------------------------------------
 Center     Atomic      Atomic             Coordinates (Angstroms)
 Number     Number       Type             X           Y           Z
 ---------------------------------------------------------------------
      1         45           0       -0.267678   -0.081540    0.000000
      2         17           0       -1.750846    0.513008    1.806020
      3          6           0       -0.093005   -2.212028    0.705185
      4          6           0        1.015830   -1.379368    1.158654
      5          6           0        1.745784   -0.952262    0.000000
      6          6           0       -1.050052   -2.891615    1.630025
      7          1           0       -1.814964   -3.457766    1.078589
      8          1           0       -1.566581   -2.141357    2.253401
      9          1           0       -0.509206   -3.589065    2.293751
     10          6           0        1.387323   -1.185362    2.594970
     11          1           0        1.845796   -2.101195    3.010762
     12          1           0        0.490956   -0.941511    3.187268
     13          1           0        2.104523   -0.358796    2.717256
     14          6           0        3.086130   -0.287569    0.000000
     15          1           0        3.238548    0.336723    0.893194
     16          1           0        3.238548    0.336723   -0.893194
     17         15           0        0.257821    2.151852    0.000000
     18          6           0       -1.155154    3.300402    0.000000
     19          1           0       -0.797471    4.344467    0.000000
     20          6           0        1.236341    2.670608    1.454683
     21          1           0        2.201963    2.141705    1.477639
     22          1           0        0.659331    2.395544    2.352885
     23          1           0        1.420807    3.758681    1.448367
     24          6           0       -0.093005   -2.212028   -0.705185
     25          6           0        1.015830   -1.379368   -1.158654
     26          6           0       -1.050052   -2.891615   -1.630025
     27          1           0       -1.814964   -3.457766   -1.078589
     28          1           0       -1.566581   -2.141357   -2.253401
     29          1           0       -0.509206   -3.589065   -2.293751
     30          6           0        1.387323   -1.185362   -2.594970
     31          1           0        1.845796   -2.101195   -3.010762
     32          1           0        0.490956   -0.941511   -3.187268
     33          1           0        2.104523   -0.358796   -2.717256
     34          1           0        3.875467   -1.060681    0.000000
     35          1           0       -1.765591    3.094639   -0.892283
     36          1           0       -1.765591    3.094639    0.892283
     37          6           0        1.236341    2.670608   -1.454683
     38          1           0        2.201963    2.141705   -1.477639
     39          1           0        0.659331    2.395544   -2.352885
     40          1           0        1.420807    3.758681   -1.448367
     41         17           0       -1.750846    0.513008   -1.806020
 ---------------------------------------------------------------------
                    Distance matrix (angstroms):
                    1          2          3          4          5
     1  Rh   0.000000
     2  Cl   2.411428   0.000000
     3  C    2.250950   3.374329   0.000000
     4  C    2.161997   3.413893   1.458928   0.000000
     5  C    2.193670   4.199422   2.337828   1.434480   0.000000
     6  C    3.341498   3.480452   1.494358   2.603258   3.772899
     7  H    3.867344   4.037365   2.157878   3.512769   4.485513
     8  H    3.317802   2.698102   2.138549   2.906535   4.178938
     9  H    4.197900   4.313532   2.143128   2.914951   4.159207
    10  C    3.269758   3.654450   2.610881   1.496212   2.629962
    11  H    4.196483   4.606658   3.014452   2.154108   3.224087
    12  H    3.387293   3.008180   2.848852   2.140674   3.425403
    13  H    3.617691   4.056386   3.508850   2.157791   2.804349
    14  C    3.360130   5.224841   3.782556   2.611637   1.496110
    15  H    3.642302   5.075271   4.198896   2.820623   2.165092
    16  H    3.642302   5.675463   4.488897   3.477862   2.165092
    17  P    2.294382   3.159472   4.434390   3.792963   3.442319
    18  C    3.496448   3.374333   5.657944   5.287334   5.147873
    19  H    4.457602   4.341740   6.631831   6.114967   5.875669
    20  C    3.457238   3.701616   5.115569   4.066763   3.937108
    21  H    3.636669   4.287795   4.981822   3.729158   3.458923
    22  H    3.539966   3.106760   4.950823   3.975329   4.233704
    23  H    4.438023   4.552108   6.204298   5.162120   4.939267
    24  C    2.250950   4.059607   1.410370   2.323087   2.337828
    25  C    2.161997   4.474916   2.323087   2.317308   1.434480
    26  C    3.341498   4.887635   2.613615   3.785695   3.772899
    27  H    3.867344   4.908373   2.774681   4.163939   4.485513
    28  H    3.317802   4.853711   3.306002   4.346446   4.178938
    29  H    4.197900   5.931003   3.326120   4.373511   4.159207
    30  C    3.269758   5.665799   3.759845   3.776948   2.629962
    31  H    4.196483   6.555248   4.192791   4.312065   3.224087
    32  H    3.387293   5.663411   4.135990   4.399346   3.425403
    33  H    3.617691   6.006991   4.469530   4.153251   2.804349
    34  H    4.257272   6.115031   4.191856   3.101865   2.132441
    35  H    3.623262   3.734418   5.788796   5.653263   5.431697
    36  H    3.623262   2.738604   5.567159   5.274845   5.431697
    37  C    3.457238   4.920438   5.502029   4.824983   3.937108
    38  H    3.636669   5.390711   5.383920   4.555755   3.458923
    39  H    3.539966   5.162304   5.580996   5.167974   4.233704
    40  H    4.438023   5.584336   6.525242   5.775821   4.939267
    41  Cl   2.411428   3.612040   4.059607   4.474916   4.199422
                    6          7          8          9         10
     6  C    0.000000
     7  H    1.099863   0.000000
     8  H    1.103760   1.781800   0.000000
     9  H    1.104302   1.788536   1.793189   0.000000
    10  C    3.127813   4.209260   3.123483   3.076580   0.000000
    11  H    3.304109   4.356001   3.495644   2.876438   1.105364
    12  H    2.933022   4.011899   2.558358   2.967868   1.101705
    13  H    4.189103   5.258443   4.107273   4.176790   1.101154
    14  C    5.152285   5.935842   5.492000   5.393293   3.228908
    15  H    5.418226   6.322223   5.574972   5.605268   2.939357
    16  H    5.931348   6.619974   6.255494   6.293973   4.232147
    17  P    5.459311   6.076809   5.180531   6.229587   4.375688
    18  C    6.403835   6.875430   5.904221   7.289945   5.772360
    19  H    7.421702   7.941882   6.909071   8.263493   6.487388
    20  C    6.016366   6.856302   5.625774   6.552440   4.023873
    21  H    5.994425   6.902827   5.757460   6.392042   3.602977
    22  H    5.603442   6.481296   5.054508   6.097911   3.662167
    23  H    7.096801   7.917326   6.662058   7.643886   5.075370
    24  C    2.613615   2.774681   3.306002   3.326120   3.759845
    25  C    3.785695   4.163939   4.346446   4.373511   3.776948
    26  C    3.260050   2.870924   3.988820   4.021812   5.167463
    27  H    2.870924   2.157178   3.591209   3.618690   5.377127
    28  H    3.988820   3.591209   4.506802   4.887790   5.757272
    29  H    4.021812   3.618690   4.887790   4.587502   5.768380
    30  C    5.167463   5.377127   5.757272   5.768380   5.189940
    31  H    5.526989   5.653693   6.273543   5.991465   5.698524
    32  H    5.420694   5.463181   5.939189   6.168585   5.856382
    33  H    5.938465   6.274905   6.431326   6.509716   5.423775
    34  H    5.501821   6.268204   5.988452   5.556922   3.597259
    35  H    6.535233   6.842572   6.111513   7.510074   6.357689
    36  H    6.073837   6.555239   5.413677   6.943667   5.581973
    37  C    6.758797   7.299650   6.690386   7.502080   5.593835
    38  H    6.750369   7.350107   6.816686   7.376689   5.321575
    39  H    6.836638   7.222076   6.837838   7.666306   6.150945
    40  H    7.733568   8.302580   7.578788   8.468634   6.386960
    41  Cl   4.887635   4.908373   4.853711   5.931003   5.665799
                   11         12         13         14         15
    11  H    0.000000
    12  H    1.792097   0.000000
    13  H    1.785788   1.778782   0.000000
    14  C    3.727245   4.161880   2.890001   0.000000
    15  H    3.516717   3.800779   2.257645   1.100349   0.000000
    16  H    4.808750   5.082648   3.847741   1.100349   1.786388
    17  P    5.447455   4.447687   4.134869   3.734984   3.602391
    18  C    6.873692   5.555374   5.603455   5.555360   5.374552
    19  H    7.589342   6.305576   6.158387   6.044677   5.757539
    20  C    5.055979   4.074905   3.394867   3.780031   3.125879
    21  H    4.525431   3.918749   2.792606   2.977674   2.161954
    22  H    4.696931   3.443905   3.131730   4.315613   3.608573
    23  H    6.079461   5.097078   4.362472   4.609035   3.914358
    24  C    4.192791   4.135990   4.469530   3.782556   4.488897
    25  C    4.312065   4.399346   4.153251   2.611637   3.477862
    26  C    5.526989   5.420694   5.938465   5.152285   5.931348
    27  H    5.653693   5.463181   6.274905   5.935842   6.619974
    28  H    6.273543   5.939189   6.431326   5.492000   6.255494
    29  H    5.991465   6.168585   6.509716   5.393293   6.293973
    30  C    5.698524   5.856382   5.423775   3.228908   4.232147
    31  H    6.021524   6.449499   5.992753   3.727245   4.808750
    32  H    6.449499   6.374536   6.148704   4.161880   5.082648
    33  H    5.992753   6.148704   5.434512   2.890001   3.847741
    34  H    3.777158   4.650569   3.318488   1.104878   1.776570
    35  H    7.434552   6.166462   6.319238   5.981195   5.986271
    36  H    6.672837   5.162312   5.498593   5.981195   5.713800
    37  C    6.563668   5.928804   5.228394   3.780031   3.868899
    38  H    6.186663   5.847660   4.884582   2.977674   3.154888
    39  H    7.099089   6.469744   5.948218   4.315613   4.629053
    40  H    7.375811   6.666749   5.896906   4.609035   4.527349
    41  Cl   6.555248   5.663411   6.006991   5.224841   5.675463
                   16         17         18         19         20
    16  H    0.000000
    17  P    3.602391   0.000000
    18  C    5.374552   1.820897   0.000000
    19  H    5.757539   2.433352   1.103634   0.000000
    20  C    3.868899   1.828308   2.869145   3.009036   0.000000
    21  H    3.154888   2.441968   3.846587   4.004021   1.101223
    22  H    4.629053   2.399305   3.105993   3.384766   1.102437
    23  H    4.527349   2.456054   2.990545   2.713240   1.103617
    24  C    4.198896   4.434390   5.657944   6.631831   5.502029
    25  C    2.820623   3.792963   5.287334   6.114967   4.824983
    26  C    5.418226   5.459311   6.403835   7.421702   6.758797
    27  H    6.322223   6.076809   6.875430   7.941882   7.299650
    28  H    5.574972   5.180531   5.904221   6.909071   6.690386
    29  H    5.605268   6.229587   7.289945   8.263493   7.502080
    30  C    2.939357   4.375688   5.772360   6.487388   5.593835
    31  H    3.516717   5.447455   6.873692   7.589342   6.563668
    32  H    3.800779   4.447687   5.555374   6.305576   5.928804
    33  H    2.257645   4.134869   5.603455   6.158387   5.228394
    34  H    1.776570   4.838154   6.657792   7.145066   4.796207
    35  H    5.713800   2.403999   1.100518   1.815350   3.834012
    36  H    5.986271   2.403999   1.100518   1.815350   3.083455
    37  C    3.125879   1.828308   2.869145   3.009036   2.909366
    38  H    2.161954   2.441968   3.846587   4.004021   3.132200
    39  H    3.608573   2.399305   3.105993   3.384766   3.860852
    40  H    3.914358   2.456054   2.990545   2.713240   3.105741
    41  Cl   5.075271   3.159472   3.374333   4.341740   4.920438
                   21         22         23         24         25
    21  H    0.000000
    22  H    1.791704   0.000000
    23  H    1.796016   1.804478   0.000000
    24  C    5.383920   5.580996   6.525242   0.000000
    25  C    4.555755   5.167974   5.775821   1.458928   0.000000
    26  C    6.750369   6.836638   7.733568   1.494358   2.603258
    27  H    7.350107   7.222076   8.302580   2.157878   3.512769
    28  H    6.816686   6.837838   7.578788   2.138549   2.906535
    29  H    7.376689   7.666306   8.468634   2.143128   2.914951
    30  C    5.321575   6.150945   6.386960   2.610881   1.496212
    31  H    6.186663   7.099089   7.375811   3.014452   2.154108
    32  H    5.847660   6.469744   6.666749   2.848852   2.140674
    33  H    4.884582   5.948218   5.896906   3.508850   2.157791
    34  H    3.903756   5.274949   5.599051   4.191856   3.101865
    35  H    4.718697   4.110973   4.009080   5.567159   5.274845
    36  H    4.122161   2.915877   3.302017   5.788796   5.653263
    37  C    3.132200   3.860852   3.105741   5.115569   4.066763
    38  H    2.955278   4.137277   3.433122   4.981822   3.729158
    39  H    4.137277   4.705770   4.109441   4.950823   3.975329
    40  H    3.433122   4.109441   2.896734   6.204298   5.162120
    41  Cl   5.390711   5.162304   5.584336   3.374329   3.413893
                   26         27         28         29         30
    26  C    0.000000
    27  H    1.099863   0.000000
    28  H    1.103760   1.781800   0.000000
    29  H    1.104302   1.788536   1.793189   0.000000
    30  C    3.127813   4.209260   3.123483   3.076580   0.000000
    31  H    3.304109   4.356001   3.495644   2.876438   1.105364
    32  H    2.933022   4.011899   2.558358   2.967868   1.101705
    33  H    4.189103   5.258443   4.107273   4.176790   1.101154
    34  H    5.501821   6.268204   5.988452   5.556922   3.597259
    35  H    6.073837   6.555239   5.413677   6.943667   5.581973
    36  H    6.535233   6.842572   6.111513   7.510074   6.357689
    37  C    6.016366   6.856302   5.625774   6.552440   4.023873
    38  H    5.994425   6.902827   5.757460   6.392042   3.602977
    39  H    5.603442   6.481296   5.054508   6.097911   3.662167
    40  H    7.096801   7.917326   6.662058   7.643886   5.075370
    41  Cl   3.480452   4.037365   2.698102   4.313532   3.654450
                   31         32         33         34         35
    31  H    0.000000
    32  H    1.792097   0.000000
    33  H    1.785788   1.778782   0.000000
    34  H    3.777158   4.650569   3.318488   0.000000
    35  H    6.672837   5.162312   5.498593   7.062888   0.000000
    36  H    7.434552   6.166462   6.319238   7.062888   1.784566
    37  C    5.055979   4.074905   3.394867   4.796207   3.083455
    38  H    4.525431   3.918749   2.792606   3.903756   4.122161
    39  H    4.696931   3.443905   3.131730   5.274949   2.915877
    40  H    6.079461   5.097078   4.362472   5.599051   3.302017
    41  Cl   4.606658   3.008180   4.056386   6.115031   2.738604
                   36         37         38         39         40
    36  H    0.000000
    37  C    3.834012   0.000000
    38  H    4.718697   1.101223   0.000000
    39  H    4.110973   1.102437   1.791704   0.000000
    40  H    4.009080   1.103617   1.796016   1.804478   0.000000
    41  Cl   3.734418   3.701616   4.287795   3.106760   4.552108
                   41
    41  Cl   0.000000
 Stoichiometry    C13H24Cl2PRh
 Framework group  CS[SG(C3H2PRh),X(C10H22Cl2)]
 Deg. of freedom    62
 Full point group                 CS      NOp   2
 Largest Abelian subgroup         CS      NOp   2
 Largest concise Abelian subgroup CS      NOp   2
                         Standard orientation:                         
 ---------------------------------------------------------------------
 Center     Atomic      Atomic             Coordinates (Angstroms)
 Number     Number       Type             X           Y           Z
 ---------------------------------------------------------------------
      1         45           0       -0.266929   -0.083961    0.000000
      2         17           0       -1.755420    0.497130    1.806020
      3          6           0       -0.072968   -2.212780    0.705185
      4          6           0        1.028281   -1.370111    1.158654
      5          6           0        1.754337   -0.936412    0.000000
      6          6           0       -1.023821   -2.901006    1.630025
      7          1           0       -1.783574   -3.474061    1.078589
      8          1           0       -1.547123   -2.155457    2.253401
      9          1           0       -0.476681   -3.593529    2.293751
     10          6           0        1.398001   -1.172749    2.594970
     11          1           0        1.864750   -2.084392    3.010762
     12          1           0        0.499463   -0.937026    3.187268
     13          1           0        2.107686   -0.339721    2.717256
     14          6           0        3.088608   -0.259607    0.000000
     15          1           0        3.235366    0.366039    0.893194
     16          1           0        3.235366    0.366039   -0.893194
     17         15           0        0.238322    2.154099    0.000000
     18          6           0       -1.184997    3.289805    0.000000
     19          1           0       -0.836784    4.337067    0.000000
     20          6           0        1.212104    2.681696    1.454683
     21          1           0        2.182476    2.161559    1.477639
     22          1           0        0.637609    2.401417    2.352885
     23          1           0        1.386708    3.771395    1.448367
     24          6           0       -0.072968   -2.212780   -0.705185
     25          6           0        1.028281   -1.370111   -1.158654
     26          6           0       -1.023821   -2.901006   -1.630025
     27          1           0       -1.783574   -3.474061   -1.078589
     28          1           0       -1.547123   -2.155457   -2.253401
     29          1           0       -0.476681   -3.593529   -2.293751
     30          6           0        1.398001   -1.172749   -2.594970
     31          1           0        1.864750   -2.084392   -3.010762
     32          1           0        0.499463   -0.937026   -3.187268
     33          1           0        2.107686   -0.339721   -2.717256
     34          1           0        3.884914   -1.025539    0.000000
     35          1           0       -1.793545    3.078522   -0.892283
     36          1           0       -1.793545    3.078522    0.892283
     37          6           0        1.212104    2.681696   -1.454683
     38          1           0        2.182476    2.161559   -1.477639
     39          1           0        0.637609    2.401417   -2.352885
     40          1           0        1.386708    3.771395   -1.448367
     41         17           0       -1.755420    0.497130   -1.806020
 ---------------------------------------------------------------------
 Rotational constants (GHZ):      0.4018285      0.3075886      0.3004908
 Standard basis: STO-3G (5D, 7F)
 There are    85 symmetry adapted basis functions of A'  symmetry.
 There are    58 symmetry adapted basis functions of A"  symmetry.
 Integral buffers will be    131072 words long.
 Raffenetti 1 integral format.
 Two-electron integral symmetry is turned on.
   143 basis functions,   435 primitive gaussians,   145 cartesian basis functions
    98 alpha electrons       98 beta electrons
       nuclear repulsion energy      2918.1721667472 Hartrees.



 Warning!  P  atom   17 may be hypervalent but has no d functions.



 NAtoms=   41 NActive=   41 NUniq=   24 SFac= 2.92D+00 NAtFMM=   50 NAOKFM=F Big=F
 One-electron integrals computed using PRISM.
 NBasis=   143 RedAO= T  NBF=    85    58
 NBsUse=   143 1.00D-06 NBFU=    85    58
 Harris functional with IExCor=  205 diagonalized for initial guess.
 ExpMin= 9.83D-02 ExpMax= 4.35D+03 ExpMxC= 4.35D+03 IAcc=2 IRadAn=         0 AccDes= 0.00D+00
 HarFok:  IExCor=  205 AccDes= 0.00D+00 IRadAn=         0 IDoV= 1
 ScaDFX=  1.000000  1.000000  1.000000  1.000000
 Defaulting to unpruned grid for atomic number  45.
 FoFCou: FMM=F IPFlag=           0 FMFlag=      100000 FMFlg1=           0
         NFxFlg=           0 DoJE=T BraDBF=F KetDBF=T FulRan=T
         Omega=  0.000000  0.000000  1.000000  0.000000  0.000000 ICntrl=     500 IOpCl=  0
         NMat0=    1 NMatS0=    1 NMatT0=    0 NMatD0=    1 NMtDS0=    0 NMtDT0=    0
         I1Cent=           4 NGrid=           0.
 Petite list used in FoFCou.
 Initial guess orbital symmetries:
       Occupied  (A') (A') (A') (A') (A") (A') (A") (A') (A') (A')
                 (A') (A") (A') (A') (A") (A") (A') (A') (A') (A")
                 (A') (A") (A') (A") (A') (A') (A") (A') (A") (A')
                 (A') (A") (A') (A") (A') (A") (A') (A") (A') (A')
                 (A") (A') (A') (A') (A') (A") (A') (A') (A") (A')
                 (A') (A') (A") (A") (A') (A') (A") (A') (A") (A')
                 (A") (A') (A') (A') (A') (A") (A') (A') (A") (A")
                 (A') (A') (A") (A") (A') (A") (A') (A") (A') (A")
                 (A") (A") (A') (A') (A') (A") (A') (A') (A") (A")
                 (A') (A') (A") (A') (A") (A') (A") (A')
       Virtual   (A") (A') (A') (A") (A') (A") (A') (A') (A') (A")
                 (A') (A') (A") (A') (A") (A") (A') (A") (A") (A')
                 (A') (A') (A') (A") (A") (A') (A") (A') (A') (A")
                 (A') (A") (A') (A') (A") (A') (A") (A") (A') (A')
                 (A") (A') (A") (A') (A")
 The electronic state of the initial guess is 1-A'.
 Requested convergence on RMS density matrix=1.00D-08 within 128 cycles.
 Requested convergence on MAX density matrix=1.00D-06.
 Requested convergence on             energy=1.00D-06.
 No special actions if energy rises.
 Integral accuracy reduced to 1.0D-05 until final iterations.
 EnCoef did   100 forward-backward iterations
 Initial convergence to 1.0D-05 achieved.  Increase integral accuracy.
 SCF Done:  E(RHF) =  -6386.33180803     A.U. after   23 cycles
             Convg  =    0.3731D-08             -V/T =  2.0044

 **********************************************************************

            Population analysis using the SCF density.

 **********************************************************************

 Orbital symmetries:
       Occupied  (A') (A') (A') (A") (A') (A') (A") (A') (A') (A')
                 (A") (A') (A') (A") (A') (A') (A") (A') (A') (A')
                 (A") (A") (A') (A') (A") (A') (A") (A") (A') (A')
                 (A') (A") (A') (A") (A') (A") (A") (A') (A') (A')
                 (A') (A") (A') (A') (A') (A") (A') (A') (A') (A")
                 (A') (A") (A') (A") (A') (A') (A") (A') (A") (A')
                 (A') (A") (A') (A') (A') (A') (A") (A") (A') (A')
                 (A") (A") (A') (A') (A") (A') (A") (A") (A') (A")
                 (A") (A') (A") (A') (A') (A") (A') (A') (A') (A")
                 (A') (A") (A') (A") (A") (A') (A") (A')
       Virtual   (A') (A") (A') (A") (A') (A") (A') (A') (A') (A")
                 (A') (A") (A') (A') (A") (A') (A") (A') (A") (A')
                 (A') (A") (A') (A') (A") (A") (A') (A') (A") (A')
                 (A") (A') (A') (A") (A") (A') (A") (A") (A') (A')
                 (A') (A") (A") (A') (A")
 The electronic state is 1-A'.
 Alpha  occ. eigenvalues -- -825.35530-119.18790-111.96321-111.95959-111.95943
 Alpha  occ. eigenvalues -- -103.49705-103.49704 -79.08563 -22.00340 -19.11797
 Alpha  occ. eigenvalues --  -19.10049 -19.09972 -11.95659 -11.94544 -11.94367
 Alpha  occ. eigenvalues --  -11.92827 -11.92684 -11.09154 -11.09037 -11.07517
 Alpha  occ. eigenvalues --  -11.07467 -11.06425 -11.06425 -11.06133 -11.06129
 Alpha  occ. eigenvalues --  -11.06040 -11.06038 -11.05523 -11.05522 -11.04585
 Alpha  occ. eigenvalues --  -10.19591 -10.19537  -7.63822  -7.63778  -7.63517
 Alpha  occ. eigenvalues --   -7.63497  -7.63473  -7.63471  -7.37889  -5.20581
 Alpha  occ. eigenvalues --   -5.20490  -5.20488  -3.40372  -2.34100  -2.31772
 Alpha  occ. eigenvalues --   -2.31566  -1.18494  -1.03896  -1.02861  -1.02592
 Alpha  occ. eigenvalues --   -0.95575  -0.94063  -0.93841  -0.93294  -0.91912
 Alpha  occ. eigenvalues --   -0.87689  -0.87134  -0.84144  -0.82558  -0.72841
 Alpha  occ. eigenvalues --   -0.68510  -0.68411  -0.61883  -0.61285  -0.59375
 Alpha  occ. eigenvalues --   -0.58441  -0.58428  -0.57146  -0.56572  -0.56195
 Alpha  occ. eigenvalues --   -0.56192  -0.55396  -0.54473  -0.53773  -0.53461
 Alpha  occ. eigenvalues --   -0.53154  -0.52882  -0.52743  -0.50935  -0.50549
 Alpha  occ. eigenvalues --   -0.49371  -0.46162  -0.45699  -0.45572  -0.44814
 Alpha  occ. eigenvalues --   -0.44805  -0.39769  -0.39432  -0.37252  -0.37158
 Alpha  occ. eigenvalues --   -0.33261  -0.32297  -0.31159  -0.30218  -0.28371
 Alpha  occ. eigenvalues --   -0.28043  -0.26612  -0.25727
 Alpha virt. eigenvalues --    0.24229   0.24286   0.29818   0.32344   0.39475
 Alpha virt. eigenvalues --    0.40529   0.44540   0.48168   0.51831   0.54245
 Alpha virt. eigenvalues --    0.56209   0.56409   0.58760   0.60475   0.61100
 Alpha virt. eigenvalues --    0.62623   0.64166   0.65736   0.66301   0.66569
 Alpha virt. eigenvalues --    0.67278   0.67403   0.68023   0.68373   0.68777
 Alpha virt. eigenvalues --    0.69462   0.69962   0.70404   0.70529   0.70711
 Alpha virt. eigenvalues --    0.70811   0.71950   0.72454   0.73284   0.73430
 Alpha virt. eigenvalues --    0.73858   0.74826   0.77221   0.77745   0.78483
 Alpha virt. eigenvalues --    0.82138   0.84945   0.96206   0.99319   1.01393
          Condensed to atoms (all electrons):
              1          2          3          4          5          6
     1  Rh  43.830952   0.157061   0.037936   0.057895   0.038025  -0.008110
     2  Cl   0.157061  17.389729  -0.002654  -0.003164  -0.000108  -0.002162
     3  C    0.037936  -0.002654   4.881730   0.448204  -0.050750   0.381332
     4  C    0.057895  -0.003164   0.448204   4.947277   0.466412  -0.021128
     5  C    0.038025  -0.000108  -0.050750   0.466412   4.893855   0.000826
     6  C   -0.008110  -0.002162   0.381332  -0.021128   0.000826   4.707822
     7  H   -0.000015   0.000033  -0.020378   0.001113  -0.000022   0.381998
     8  H   -0.007484   0.001574  -0.020776  -0.001380   0.000016   0.381157
     9  H    0.001457   0.000017  -0.023123  -0.002155   0.000010   0.378607
    10  C   -0.011305  -0.000728  -0.020583   0.381636  -0.019707  -0.001592
    11  H    0.001822   0.000002  -0.001429  -0.023291  -0.000181  -0.000018
    12  H   -0.006082   0.000635  -0.001921  -0.021445   0.001093  -0.000134
    13  H   -0.001600   0.000019   0.001137  -0.020581  -0.002852   0.000012
    14  C   -0.006902   0.000000   0.000831  -0.020232   0.380508  -0.000003
    15  H   -0.002813   0.000000   0.000015  -0.002367  -0.020206   0.000000
    16  H   -0.002813   0.000000  -0.000019   0.001097  -0.020206   0.000000
    17  P    0.170537  -0.012430   0.000030  -0.001091  -0.002933   0.000000
    18  C   -0.015519  -0.002465   0.000000   0.000001   0.000003   0.000000
    19  H    0.001032   0.000026   0.000000   0.000000   0.000000   0.000000
    20  C   -0.016818  -0.000494   0.000000  -0.000024  -0.000050   0.000000
    21  H   -0.000731   0.000012   0.000000  -0.000009  -0.000051   0.000000
    22  H   -0.001367   0.000350   0.000000  -0.000013  -0.000003   0.000000
    23  H    0.000978   0.000001   0.000000   0.000001   0.000001   0.000000
    24  C    0.037936  -0.000225   0.493185  -0.052468  -0.050750  -0.020114
    25  C    0.057895   0.000028  -0.052468  -0.053689   0.466412   0.000894
    26  C   -0.008110   0.000000  -0.020114   0.000894   0.000826  -0.001889
    27  H   -0.000015  -0.000001  -0.003356   0.000014  -0.000022  -0.000692
    28  H   -0.007484   0.000002   0.000749  -0.000010   0.000016   0.000039
    29  H    0.001457   0.000000   0.000489  -0.000019   0.000010   0.000026
    30  C   -0.011305   0.000000   0.000847   0.000873  -0.019707  -0.000003
    31  H    0.001822   0.000000   0.000007  -0.000010  -0.000181   0.000000
    32  H   -0.006082   0.000000   0.000020  -0.000013   0.001093   0.000000
    33  H   -0.001600   0.000000  -0.000023   0.000017  -0.002852   0.000000
    34  H    0.001699   0.000000   0.000001  -0.000846  -0.022848   0.000000
    35  H   -0.001238   0.000058   0.000000   0.000000   0.000000   0.000000
    36  H   -0.001238   0.000587   0.000000   0.000000   0.000000   0.000000
    37  C   -0.016818   0.000023   0.000000   0.000004  -0.000050   0.000000
    38  H   -0.000731   0.000000   0.000000   0.000000  -0.000051   0.000000
    39  H   -0.001367   0.000000   0.000000   0.000000  -0.000003   0.000000
    40  H    0.000978  -0.000001   0.000000   0.000000   0.000001   0.000000
    41  Cl   0.157061  -0.003331  -0.000225   0.000028  -0.000108   0.000000
              7          8          9         10         11         12
     1  Rh  -0.000015  -0.007484   0.001457  -0.011305   0.001822  -0.006082
     2  Cl   0.000033   0.001574   0.000017  -0.000728   0.000002   0.000635
     3  C   -0.020378  -0.020776  -0.023123  -0.020583  -0.001429  -0.001921
     4  C    0.001113  -0.001380  -0.002155   0.381636  -0.023291  -0.021445
     5  C   -0.000022   0.000016   0.000010  -0.019707  -0.000181   0.001093
     6  C    0.381998   0.381157   0.378607  -0.001592  -0.000018  -0.000134
     7  H    0.607695  -0.019036  -0.020200   0.000013  -0.000001   0.000002
     8  H   -0.019036   0.581454  -0.019552  -0.000116  -0.000076   0.000192
     9  H   -0.020200  -0.019552   0.616916  -0.000057   0.000247  -0.000240
    10  C    0.000013  -0.000116  -0.000057   4.700478   0.377907   0.383503
    11  H   -0.000001  -0.000076   0.000247   0.377907   0.620512  -0.020509
    12  H    0.000002   0.000192  -0.000240   0.383503  -0.020509   0.595356
    13  H    0.000000   0.000005  -0.000004   0.381326  -0.020854  -0.019646
    14  C    0.000000   0.000000   0.000000  -0.001653   0.000031   0.000020
    15  H    0.000000   0.000000   0.000000  -0.000394  -0.000048   0.000007
    16  H    0.000000   0.000000   0.000000   0.000017  -0.000002   0.000001
    17  P    0.000000   0.000000   0.000000  -0.000012   0.000000   0.000008
    18  C    0.000000   0.000000   0.000000   0.000000   0.000000   0.000000
    19  H    0.000000   0.000000   0.000000   0.000000   0.000000   0.000000
    20  C    0.000000   0.000000   0.000000  -0.000040   0.000000   0.000004
    21  H    0.000000   0.000000   0.000000  -0.000057   0.000000   0.000001
    22  H    0.000000   0.000000   0.000000  -0.000018   0.000000   0.000006
    23  H    0.000000   0.000000   0.000000   0.000000   0.000000   0.000000
    24  C   -0.003356   0.000749   0.000489   0.000847   0.000007   0.000020
    25  C    0.000014  -0.000010  -0.000019   0.000873  -0.000010  -0.000013
    26  C   -0.000692   0.000039   0.000026  -0.000003   0.000000   0.000000
    27  H   -0.000059  -0.000021  -0.000006   0.000000   0.000000   0.000000
    28  H   -0.000021   0.000008  -0.000003   0.000000   0.000000   0.000000
    29  H   -0.000006  -0.000003   0.000006   0.000000   0.000000   0.000000
    30  C    0.000000   0.000000   0.000000  -0.000003   0.000000   0.000000
    31  H    0.000000   0.000000   0.000000   0.000000   0.000000   0.000000
    32  H    0.000000   0.000000   0.000000   0.000000   0.000000   0.000000
    33  H    0.000000   0.000000   0.000000   0.000000   0.000000   0.000000
    34  H    0.000000   0.000000   0.000000   0.000034   0.000054  -0.000004
    35  H    0.000000   0.000000   0.000000   0.000000   0.000000   0.000000
    36  H    0.000000   0.000000   0.000000   0.000000   0.000000   0.000000
    37  C    0.000000   0.000000   0.000000   0.000000   0.000000   0.000000
    38  H    0.000000   0.000000   0.000000   0.000000   0.000000   0.000000
    39  H    0.000000   0.000000   0.000000   0.000000   0.000000   0.000000
    40  H    0.000000   0.000000   0.000000   0.000000   0.000000   0.000000
    41  Cl  -0.000001   0.000002   0.000000   0.000000   0.000000   0.000000
             13         14         15         16         17         18
     1  Rh  -0.001600  -0.006902  -0.002813  -0.002813   0.170537  -0.015519
     2  Cl   0.000019   0.000000   0.000000   0.000000  -0.012430  -0.002465
     3  C    0.001137   0.000831   0.000015  -0.000019   0.000030   0.000000
     4  C   -0.020581  -0.020232  -0.002367   0.001097  -0.001091   0.000001
     5  C   -0.002852   0.380508  -0.020206  -0.020206  -0.002933   0.000003
     6  C    0.000012  -0.000003   0.000000   0.000000   0.000000   0.000000
     7  H    0.000000   0.000000   0.000000   0.000000   0.000000   0.000000
     8  H    0.000005   0.000000   0.000000   0.000000   0.000000   0.000000
     9  H   -0.000004   0.000000   0.000000   0.000000   0.000000   0.000000
    10  C    0.381326  -0.001653  -0.000394   0.000017  -0.000012   0.000000
    11  H   -0.020854   0.000031  -0.000048  -0.000002   0.000000   0.000000
    12  H   -0.019646   0.000020   0.000007   0.000001   0.000008   0.000000
    13  H    0.623361  -0.000525  -0.000091   0.000000  -0.000005   0.000000
    14  C   -0.000525   4.703128   0.382076   0.382076  -0.000251   0.000000
    15  H   -0.000091   0.382076   0.614491  -0.020246   0.000013   0.000000
    16  H    0.000000   0.382076  -0.020246   0.614491   0.000013   0.000000
    17  P   -0.000005  -0.000251   0.000013   0.000013  13.471060   0.316241
    18  C    0.000000   0.000000   0.000000   0.000000   0.316241   4.900310
    19  H    0.000000   0.000000   0.000000   0.000000  -0.021166   0.377553
    20  C   -0.000088  -0.000303  -0.000672   0.000017   0.304439  -0.013233
    21  H   -0.000029  -0.000755  -0.000193  -0.000005  -0.018846   0.000444
    22  H   -0.000002   0.000009   0.000009   0.000000  -0.020142  -0.000369
    23  H    0.000000   0.000004   0.000003  -0.000001  -0.018952  -0.001090
    24  C   -0.000023   0.000831  -0.000019   0.000015   0.000030   0.000000
    25  C    0.000017  -0.020232   0.001097  -0.002367  -0.001091   0.000001
    26  C    0.000000  -0.000003   0.000000   0.000000   0.000000   0.000000
    27  H    0.000000   0.000000   0.000000   0.000000   0.000000   0.000000
    28  H    0.000000   0.000000   0.000000   0.000000   0.000000   0.000000
    29  H    0.000000   0.000000   0.000000   0.000000   0.000000   0.000000
    30  C    0.000000  -0.001653   0.000017  -0.000394  -0.000012   0.000000
    31  H    0.000000   0.000031  -0.000002  -0.000048   0.000000   0.000000
    32  H    0.000000   0.000020   0.000001   0.000007   0.000008   0.000000
    33  H    0.000000  -0.000525   0.000000  -0.000091  -0.000005   0.000000
    34  H   -0.000050   0.377857  -0.020505  -0.020505   0.000002   0.000000
    35  H    0.000000   0.000000   0.000000   0.000000  -0.019916   0.379782
    36  H    0.000000   0.000000   0.000000   0.000000  -0.019916   0.379782
    37  C    0.000000  -0.000303   0.000017  -0.000672   0.304439  -0.013233
    38  H    0.000000  -0.000755  -0.000005  -0.000193  -0.018846   0.000444
    39  H    0.000000   0.000009   0.000000   0.000009  -0.020142  -0.000369
    40  H    0.000000   0.000004  -0.000001   0.000003  -0.018952  -0.001090
    41  Cl   0.000000   0.000000   0.000000   0.000000  -0.012430  -0.002465
             19         20         21         22         23         24
     1  Rh   0.001032  -0.016818  -0.000731  -0.001367   0.000978   0.037936
     2  Cl   0.000026  -0.000494   0.000012   0.000350   0.000001  -0.000225
     3  C    0.000000   0.000000   0.000000   0.000000   0.000000   0.493185
     4  C    0.000000  -0.000024  -0.000009  -0.000013   0.000001  -0.052468
     5  C    0.000000  -0.000050  -0.000051  -0.000003   0.000001  -0.050750
     6  C    0.000000   0.000000   0.000000   0.000000   0.000000  -0.020114
     7  H    0.000000   0.000000   0.000000   0.000000   0.000000  -0.003356
     8  H    0.000000   0.000000   0.000000   0.000000   0.000000   0.000749
     9  H    0.000000   0.000000   0.000000   0.000000   0.000000   0.000489
    10  C    0.000000  -0.000040  -0.000057  -0.000018   0.000000   0.000847
    11  H    0.000000   0.000000   0.000000   0.000000   0.000000   0.000007
    12  H    0.000000   0.000004   0.000001   0.000006   0.000000   0.000020
    13  H    0.000000  -0.000088  -0.000029  -0.000002   0.000000  -0.000023
    14  C    0.000000  -0.000303  -0.000755   0.000009   0.000004   0.000831
    15  H    0.000000  -0.000672  -0.000193   0.000009   0.000003  -0.000019
    16  H    0.000000   0.000017  -0.000005   0.000000  -0.000001   0.000015
    17  P   -0.021166   0.304439  -0.018846  -0.020142  -0.018952   0.000030
    18  C    0.377553  -0.013233   0.000444  -0.000369  -0.001090   0.000000
    19  H    0.616236  -0.001028  -0.000001   0.000015   0.000399   0.000000
    20  C   -0.001028   4.916380   0.378517   0.379359   0.377051   0.000000
    21  H   -0.000001   0.378517   0.613713  -0.018301  -0.019729   0.000000
    22  H    0.000015   0.379359  -0.018301   0.585266  -0.018354   0.000000
    23  H    0.000399   0.377051  -0.019729  -0.018354   0.610533   0.000000
    24  C    0.000000   0.000000   0.000000   0.000000   0.000000   4.881730
    25  C    0.000000   0.000004   0.000000   0.000000   0.000000   0.448204
    26  C    0.000000   0.000000   0.000000   0.000000   0.000000   0.381332
    27  H    0.000000   0.000000   0.000000   0.000000   0.000000  -0.020378
    28  H    0.000000   0.000000   0.000000   0.000000   0.000000  -0.020776
    29  H    0.000000   0.000000   0.000000   0.000000   0.000000  -0.023123
    30  C    0.000000   0.000000   0.000000   0.000000   0.000000  -0.020583
    31  H    0.000000   0.000000   0.000000   0.000000   0.000000  -0.001429
    32  H    0.000000   0.000000   0.000000   0.000000   0.000000  -0.001921
    33  H    0.000000   0.000000   0.000000   0.000000   0.000000   0.001137
    34  H    0.000000   0.000003   0.000002   0.000000   0.000000   0.000001
    35  H   -0.018155   0.000463  -0.000009   0.000000   0.000002   0.000000
    36  H   -0.018155  -0.000423   0.000002   0.000094   0.000010   0.000000
    37  C   -0.001028  -0.012190  -0.000429   0.000445  -0.000708   0.000000
    38  H   -0.000001  -0.000429   0.000132   0.000001   0.000008   0.000000
    39  H    0.000015   0.000445   0.000001  -0.000009  -0.000005   0.000000
    40  H    0.000399  -0.000708   0.000008  -0.000005   0.000325   0.000000
    41  Cl   0.000026   0.000023   0.000000   0.000000  -0.000001  -0.002654
             25         26         27         28         29         30
     1  Rh   0.057895  -0.008110  -0.000015  -0.007484   0.001457  -0.011305
     2  Cl   0.000028   0.000000  -0.000001   0.000002   0.000000   0.000000
     3  C   -0.052468  -0.020114  -0.003356   0.000749   0.000489   0.000847
     4  C   -0.053689   0.000894   0.000014  -0.000010  -0.000019   0.000873
     5  C    0.466412   0.000826  -0.000022   0.000016   0.000010  -0.019707
     6  C    0.000894  -0.001889  -0.000692   0.000039   0.000026  -0.000003
     7  H    0.000014  -0.000692  -0.000059  -0.000021  -0.000006   0.000000
     8  H   -0.000010   0.000039  -0.000021   0.000008  -0.000003   0.000000
     9  H   -0.000019   0.000026  -0.000006  -0.000003   0.000006   0.000000
    10  C    0.000873  -0.000003   0.000000   0.000000   0.000000  -0.000003
    11  H   -0.000010   0.000000   0.000000   0.000000   0.000000   0.000000
    12  H   -0.000013   0.000000   0.000000   0.000000   0.000000   0.000000
    13  H    0.000017   0.000000   0.000000   0.000000   0.000000   0.000000
    14  C   -0.020232  -0.000003   0.000000   0.000000   0.000000  -0.001653
    15  H    0.001097   0.000000   0.000000   0.000000   0.000000   0.000017
    16  H   -0.002367   0.000000   0.000000   0.000000   0.000000  -0.000394
    17  P   -0.001091   0.000000   0.000000   0.000000   0.000000  -0.000012
    18  C    0.000001   0.000000   0.000000   0.000000   0.000000   0.000000
    19  H    0.000000   0.000000   0.000000   0.000000   0.000000   0.000000
    20  C    0.000004   0.000000   0.000000   0.000000   0.000000   0.000000
    21  H    0.000000   0.000000   0.000000   0.000000   0.000000   0.000000
    22  H    0.000000   0.000000   0.000000   0.000000   0.000000   0.000000
    23  H    0.000000   0.000000   0.000000   0.000000   0.000000   0.000000
    24  C    0.448204   0.381332  -0.020378  -0.020776  -0.023123  -0.020583
    25  C    4.947277  -0.021128   0.001113  -0.001380  -0.002155   0.381636
    26  C   -0.021128   4.707822   0.381998   0.381157   0.378607  -0.001592
    27  H    0.001113   0.381998   0.607695  -0.019036  -0.020200   0.000013
    28  H   -0.001380   0.381157  -0.019036   0.581454  -0.019552  -0.000116
    29  H   -0.002155   0.378607  -0.020200  -0.019552   0.616916  -0.000057
    30  C    0.381636  -0.001592   0.000013  -0.000116  -0.000057   4.700478
    31  H   -0.023291  -0.000018  -0.000001  -0.000076   0.000247   0.377907
    32  H   -0.021445  -0.000134   0.000002   0.000192  -0.000240   0.383503
    33  H   -0.020581   0.000012   0.000000   0.000005  -0.000004   0.381326
    34  H   -0.000846   0.000000   0.000000   0.000000   0.000000   0.000034
    35  H    0.000000   0.000000   0.000000   0.000000   0.000000   0.000000
    36  H    0.000000   0.000000   0.000000   0.000000   0.000000   0.000000
    37  C   -0.000024   0.000000   0.000000   0.000000   0.000000  -0.000040
    38  H   -0.000009   0.000000   0.000000   0.000000   0.000000  -0.000057
    39  H   -0.000013   0.000000   0.000000   0.000000   0.000000  -0.000018
    40  H    0.000001   0.000000   0.000000   0.000000   0.000000   0.000000
    41  Cl  -0.003164  -0.002162   0.000033   0.001574   0.000017  -0.000728
             31         32         33         34         35         36
     1  Rh   0.001822  -0.006082  -0.001600   0.001699  -0.001238  -0.001238
     2  Cl   0.000000   0.000000   0.000000   0.000000   0.000058   0.000587
     3  C    0.000007   0.000020  -0.000023   0.000001   0.000000   0.000000
     4  C   -0.000010  -0.000013   0.000017  -0.000846   0.000000   0.000000
     5  C   -0.000181   0.001093  -0.002852  -0.022848   0.000000   0.000000
     6  C    0.000000   0.000000   0.000000   0.000000   0.000000   0.000000
     7  H    0.000000   0.000000   0.000000   0.000000   0.000000   0.000000
     8  H    0.000000   0.000000   0.000000   0.000000   0.000000   0.000000
     9  H    0.000000   0.000000   0.000000   0.000000   0.000000   0.000000
    10  C    0.000000   0.000000   0.000000   0.000034   0.000000   0.000000
    11  H    0.000000   0.000000   0.000000   0.000054   0.000000   0.000000
    12  H    0.000000   0.000000   0.000000  -0.000004   0.000000   0.000000
    13  H    0.000000   0.000000   0.000000  -0.000050   0.000000   0.000000
    14  C    0.000031   0.000020  -0.000525   0.377857   0.000000   0.000000
    15  H   -0.000002   0.000001   0.000000  -0.020505   0.000000   0.000000
    16  H   -0.000048   0.000007  -0.000091  -0.020505   0.000000   0.000000
    17  P    0.000000   0.000008  -0.000005   0.000002  -0.019916  -0.019916
    18  C    0.000000   0.000000   0.000000   0.000000   0.379782   0.379782
    19  H    0.000000   0.000000   0.000000   0.000000  -0.018155  -0.018155
    20  C    0.000000   0.000000   0.000000   0.000003   0.000463  -0.000423
    21  H    0.000000   0.000000   0.000000   0.000002  -0.000009   0.000002
    22  H    0.000000   0.000000   0.000000   0.000000   0.000000   0.000094
    23  H    0.000000   0.000000   0.000000   0.000000   0.000002   0.000010
    24  C   -0.001429  -0.001921   0.001137   0.000001   0.000000   0.000000
    25  C   -0.023291  -0.021445  -0.020581  -0.000846   0.000000   0.000000
    26  C   -0.000018  -0.000134   0.000012   0.000000   0.000000   0.000000
    27  H   -0.000001   0.000002   0.000000   0.000000   0.000000   0.000000
    28  H   -0.000076   0.000192   0.000005   0.000000   0.000000   0.000000
    29  H    0.000247  -0.000240  -0.000004   0.000000   0.000000   0.000000
    30  C    0.377907   0.383503   0.381326   0.000034   0.000000   0.000000
    31  H    0.620512  -0.020509  -0.020854   0.000054   0.000000   0.000000
    32  H   -0.020509   0.595356  -0.019646  -0.000004   0.000000   0.000000
    33  H   -0.020854  -0.019646   0.623361  -0.000050   0.000000   0.000000
    34  H    0.000054  -0.000004  -0.000050   0.604855   0.000000   0.000000
    35  H    0.000000   0.000000   0.000000   0.000000   0.569899  -0.016982
    36  H    0.000000   0.000000   0.000000   0.000000  -0.016982   0.569899
    37  C    0.000000   0.000004  -0.000088   0.000003  -0.000423   0.000463
    38  H    0.000000   0.000001  -0.000029   0.000002   0.000002  -0.000009
    39  H    0.000000   0.000006  -0.000002   0.000000   0.000094   0.000000
    40  H    0.000000   0.000000   0.000000   0.000000   0.000010   0.000002
    41  Cl   0.000002   0.000635   0.000019   0.000000   0.000587   0.000058
             37         38         39         40         41
     1  Rh  -0.016818  -0.000731  -0.001367   0.000978   0.157061
     2  Cl   0.000023   0.000000   0.000000  -0.000001  -0.003331
     3  C    0.000000   0.000000   0.000000   0.000000  -0.000225
     4  C    0.000004   0.000000   0.000000   0.000000   0.000028
     5  C   -0.000050  -0.000051  -0.000003   0.000001  -0.000108
     6  C    0.000000   0.000000   0.000000   0.000000   0.000000
     7  H    0.000000   0.000000   0.000000   0.000000  -0.000001
     8  H    0.000000   0.000000   0.000000   0.000000   0.000002
     9  H    0.000000   0.000000   0.000000   0.000000   0.000000
    10  C    0.000000   0.000000   0.000000   0.000000   0.000000
    11  H    0.000000   0.000000   0.000000   0.000000   0.000000
    12  H    0.000000   0.000000   0.000000   0.000000   0.000000
    13  H    0.000000   0.000000   0.000000   0.000000   0.000000
    14  C   -0.000303  -0.000755   0.000009   0.000004   0.000000
    15  H    0.000017  -0.000005   0.000000  -0.000001   0.000000
    16  H   -0.000672  -0.000193   0.000009   0.000003   0.000000
    17  P    0.304439  -0.018846  -0.020142  -0.018952  -0.012430
    18  C   -0.013233   0.000444  -0.000369  -0.001090  -0.002465
    19  H   -0.001028  -0.000001   0.000015   0.000399   0.000026
    20  C   -0.012190  -0.000429   0.000445  -0.000708   0.000023
    21  H   -0.000429   0.000132   0.000001   0.000008   0.000000
    22  H    0.000445   0.000001  -0.000009  -0.000005   0.000000
    23  H   -0.000708   0.000008  -0.000005   0.000325  -0.000001
    24  C    0.000000   0.000000   0.000000   0.000000  -0.002654
    25  C   -0.000024  -0.000009  -0.000013   0.000001  -0.003164
    26  C    0.000000   0.000000   0.000000   0.000000  -0.002162
    27  H    0.000000   0.000000   0.000000   0.000000   0.000033
    28  H    0.000000   0.000000   0.000000   0.000000   0.001574
    29  H    0.000000   0.000000   0.000000   0.000000   0.000017
    30  C   -0.000040  -0.000057  -0.000018   0.000000  -0.000728
    31  H    0.000000   0.000000   0.000000   0.000000   0.000002
    32  H    0.000004   0.000001   0.000006   0.000000   0.000635
    33  H   -0.000088  -0.000029  -0.000002   0.000000   0.000019
    34  H    0.000003   0.000002   0.000000   0.000000   0.000000
    35  H   -0.000423   0.000002   0.000094   0.000010   0.000587
    36  H    0.000463  -0.000009   0.000000   0.000002   0.000058
    37  C    4.916380   0.378517   0.379359   0.377051  -0.000494
    38  H    0.378517   0.613713  -0.018301  -0.019729   0.000012
    39  H    0.379359  -0.018301   0.585266  -0.018354   0.000350
    40  H    0.377051  -0.019729  -0.018354   0.610533   0.000001
    41  Cl  -0.000494   0.000012   0.000350   0.000001  17.389729
 Mulliken atomic charges:
              1
     1  Rh   0.581007
     2  Cl  -0.522394
     3  C   -0.028696
     4  C   -0.081532
     5  C   -0.035467
     6  C   -0.176870
     7  H    0.072920
     8  H    0.103255
     9  H    0.067586
    10  C   -0.170368
    11  H    0.065837
    12  H    0.089145
    13  H    0.060470
    14  C   -0.173337
    15  H    0.069816
    16  H    0.069816
    17  P    0.640315
    18  C   -0.304729
    19  H    0.063833
    20  C   -0.310205
    21  H    0.066314
    22  H    0.093030
    23  H    0.069522
    24  C   -0.028696
    25  C   -0.081532
    26  C   -0.176870
    27  H    0.072920
    28  H    0.103255
    29  H    0.067586
    30  C   -0.170368
    31  H    0.065837
    32  H    0.089145
    33  H    0.060470
    34  H    0.081058
    35  H    0.105828
    36  H    0.105828
    37  C   -0.310205
    38  H    0.066314
    39  H    0.093030
    40  H    0.069522
    41  Cl  -0.522394
 Sum of Mulliken atomic charges =   0.00000
 Mulliken charges with hydrogens summed into heavy atoms:
              1
     1  Rh   0.581007
     2  Cl  -0.522394
     3  C   -0.028696
     4  C   -0.081532
     5  C   -0.035467
     6  C    0.066891
    10  C    0.045084
    14  C    0.047355
    17  P    0.640315
    18  C   -0.029240
    20  C   -0.081339
    24  C   -0.028696
    25  C   -0.081532
    26  C    0.066891
    30  C    0.045084
    37  C   -0.081339
    41  Cl  -0.522394
 Sum of Mulliken charges with hydrogens summed into heavy atoms =   0.00000
 Electronic spatial extent (au):  <R**2>=           4972.5943
 Charge=              0.0000 electrons
 Dipole moment (field-independent basis, Debye):
    X=              8.4099    Y=              0.5851    Z=              0.0000  Tot=              8.4302
 Quadrupole moment (field-independent basis, Debye-Ang):
   XX=           -145.7637   YY=           -118.9573   ZZ=           -145.3047
   XY=              6.5792   XZ=              0.0000   YZ=              0.0000
 Traceless Quadrupole moment (field-independent basis, Debye-Ang):
   XX=             -9.0885   YY=             17.7179   ZZ=             -8.6295
   XY=              6.5792   XZ=              0.0000   YZ=              0.0000
 Octapole moment (field-independent basis, Debye-Ang**2):
  XXX=             11.9585  YYY=             36.0501  ZZZ=              0.0000  XYY=            -12.1072
  XXY=             -5.2835  XXZ=              0.0000  XZZ=             19.3351  YZZ=            -10.0243
  YYZ=              0.0000  XYZ=              0.0000
 Hexadecapole moment (field-independent basis, Debye-Ang**3):
 XXXX=          -1692.6518 YYYY=          -2701.9641 ZZZZ=          -1820.6894 XXXY=              6.2049
 XXXZ=              0.0000 YYYX=             22.9557 YYYZ=              0.0000 ZZZX=              0.0000
 ZZZY=              0.0000 XXYY=           -741.8605 XXZZ=           -620.7802 YYZZ=           -751.4023
 XXYZ=              0.0000 YYXZ=              0.0000 ZZXY=              6.7034
 N-N= 2.918172166747D+03 E-N=-2.100706341339D+04  KE= 6.358317686273D+03
 Symmetry A'   KE= 4.978995595562D+03
 Symmetry A"   KE= 1.379322090711D+03

 Test job not archived.
 1\1\GINC-NOVAMUTE\SP\RHF\STO-3G\C13H24Cl2P1Rh1\RPATON\10-Nov-2016\0\\#
  geom=connectivity test\\rovis199_wB97XD\\0,1\Rh,0,-0.267678,-0.08154,
 0.\Cl,0,-1.750846,0.513008,1.80602\C,0,-0.093005,-2.212028,0.705185\C,
 0,1.01583,-1.379368,1.158654\C,0,1.745784,-0.952262,0.\C,0,-1.050052,-
 2.891615,1.630025\H,0,-1.814964,-3.457766,1.078589\H,0,-1.566581,-2.14
 1357,2.253401\H,0,-0.509206,-3.589065,2.293751\C,0,1.387323,-1.185362,
 2.59497\H,0,1.845796,-2.101195,3.010762\H,0,0.490956,-0.941511,3.18726
 8\H,0,2.104523,-0.358796,2.717256\C,0,3.08613,-0.287569,0.\H,0,3.23854
 8,0.336723,0.893194\H,0,3.238548,0.336723,-0.893194\P,0,0.257821,2.151
 852,0.\C,0,-1.155154,3.300402,0.\H,0,-0.797471,4.344467,0.\C,0,1.23634
 1,2.670608,1.454683\H,0,2.201963,2.141705,1.477639\H,0,0.659331,2.3955
 44,2.352885\H,0,1.420807,3.758681,1.448367\C,0,-0.093005,-2.212028,-0.
 705185\C,0,1.01583,-1.379368,-1.158654\C,0,-1.050052,-2.891615,-1.6300
 25\H,0,-1.814964,-3.457766,-1.078589\H,0,-1.566581,-2.141357,-2.253401
 \H,0,-0.509206,-3.589065,-2.293751\C,0,1.387323,-1.185362,-2.59497\H,0
 ,1.845796,-2.101195,-3.010762\H,0,0.490956,-0.941511,-3.187268\H,0,2.1
 04523,-0.358796,-2.717256\H,0,3.875467,-1.060681,0.\H,0,-1.765591,3.09
 4639,-0.892283\H,0,-1.765591,3.094639,0.892283\C,0,1.236341,2.670608,-
 1.454683\H,0,2.201963,2.141705,-1.477639\H,0,0.659331,2.395544,-2.3528
 85\H,0,1.420807,3.758681,-1.448367\Cl,0,-1.750846,0.513008,-1.80602\\V
 ersion=EM64M-G09RevB.01\State=1-A'\HF=-6386.331808\RMSD=3.731e-09\Dipo
 le=3.3106522,0.2002094,0.\Quadrupole=-6.6668126,13.0826262,-6.4158136,
 5.0711739,0.,0.\PG=CS [SG(C3H2P1Rh1),X(C10H22Cl2)]\\@


 IF NO USE IS MADE OF THE LABOR OF PAST AGES,
 THE WORLD MUST REMAIN ALWAYS IN THE INFANCY OF KNOWLEDGE.

                          -- CICERO
 Job cpu time:  0 days  0 hours  0 minutes 19.4 seconds.
 File lengths (MBytes):  RWF=     16 Int=      0 D2E=      0 Chk=      2 Scr=      1
 Normal termination of Gaussian 09 at Thu Nov 10 13:46:04 2016.
