 Entering Gaussian System, Link 0=g09
 Initial command:
 /usr/local/gaussian/g09/l1.exe "/scratch/rpaton/561421/Gau-4563.inp" -scrdir="/scratch/rpaton/561421/"
 Entering Link 1 = /usr/local/gaussian/g09/l1.exe PID=      4564.
  
 Copyright (c) 1988,1990,1992,1993,1995,1998,2003,2009,2013,
            Gaussian, Inc.  All Rights Reserved.
  
 This is part of the Gaussian(R) 09 program.  It is based on
 the Gaussian(R) 03 system (copyright 2003, Gaussian, Inc.),
 the Gaussian(R) 98 system (copyright 1998, Gaussian, Inc.),
 the Gaussian(R) 94 system (copyright 1995, Gaussian, Inc.),
 the Gaussian 92(TM) system (copyright 1992, Gaussian, Inc.),
 the Gaussian 90(TM) system (copyright 1990, Gaussian, Inc.),
 the Gaussian 88(TM) system (copyright 1988, Gaussian, Inc.),
 the Gaussian 86(TM) system (copyright 1986, Carnegie Mellon
 University), and the Gaussian 82(TM) system (copyright 1983,
 Carnegie Mellon University). Gaussian is a federally registered
 trademark of Gaussian, Inc.
  
 This software contains proprietary and confidential information,
 including trade secrets, belonging to Gaussian, Inc.
  
 This software is provided under written license and may be
 used, copied, transmitted, or stored only in accord with that
 written license.
  
 The following legend is applicable only to US Government
 contracts under FAR:
  
                    RESTRICTED RIGHTS LEGEND
  
 Use, reproduction and disclosure by the US Government is
 subject to restrictions as set forth in subparagraphs (a)
 and (c) of the Commercial Computer Software - Restricted
 Rights clause in FAR 52.227-19.
  
 Gaussian, Inc.
 340 Quinnipiac St., Bldg. 40, Wallingford CT 06492
  
  
 ---------------------------------------------------------------
 Warning -- This program may not be used in any manner that
 competes with the business of Gaussian, Inc. or will provide
 assistance to any competitor of Gaussian, Inc.  The licensee
 of this program is prohibited from giving any competitor of
 Gaussian, Inc. access to this program.  By using this program,
 the user acknowledges that Gaussian, Inc. is engaged in the
 business of creating and licensing software in the field of
 computational chemistry and represents and warrants to the
 licensee that it is not a competitor of Gaussian, Inc. and that
 it will not use this program in any manner prohibited above.
 ---------------------------------------------------------------
  

 Cite this work as:
 Gaussian 09, Revision D.01,
 M. J. Frisch, G. W. Trucks, H. B. Schlegel, G. E. Scuseria, 
 M. A. Robb, J. R. Cheeseman, G. Scalmani, V. Barone, B. Mennucci, 
 G. A. Petersson, H. Nakatsuji, M. Caricato, X. Li, H. P. Hratchian, 
 A. F. Izmaylov, J. Bloino, G. Zheng, J. L. Sonnenberg, M. Hada, 
 M. Ehara, K. Toyota, R. Fukuda, J. Hasegawa, M. Ishida, T. Nakajima, 
 Y. Honda, O. Kitao, H. Nakai, T. Vreven, J. A. Montgomery, Jr., 
 J. E. Peralta, F. Ogliaro, M. Bearpark, J. J. Heyd, E. Brothers, 
 K. N. Kudin, V. N. Staroverov, T. Keith, R. Kobayashi, J. Normand, 
 K. Raghavachari, A. Rendell, J. C. Burant, S. S. Iyengar, J. Tomasi, 
 M. Cossi, N. Rega, J. M. Millam, M. Klene, J. E. Knox, J. B. Cross, 
 V. Bakken, C. Adamo, J. Jaramillo, R. Gomperts, R. E. Stratmann, 
 O. Yazyev, A. J. Austin, R. Cammi, C. Pomelli, J. W. Ochterski, 
 R. L. Martin, K. Morokuma, V. G. Zakrzewski, G. A. Voth, 
 P. Salvador, J. J. Dannenberg, S. Dapprich, A. D. Daniels, 
 O. Farkas, J. B. Foresman, J. V. Ortiz, J. Cioslowski, 
 and D. J. Fox, Gaussian, Inc., Wallingford CT, 2013.
 
 ******************************************
 Gaussian 09:  ES64L-G09RevD.01 24-Apr-2013
                 4-Apr-2016 
 ******************************************
 %nproc=16
 Will use up to   16 processors via shared memory.
 %mem=16GB
 --------------------
 # opt B3LYP/6-31G(d)
 --------------------
 1/14=-1,18=20,19=15,26=3,38=1/1,3;
 2/9=110,12=2,17=6,18=5,40=1/2;
 3/5=1,6=6,7=1,11=2,16=1,25=1,30=1,71=1,74=-5/1,2,3;
 4//1;
 5/5=2,38=5/2;
 6/7=2,8=2,9=2,10=2,28=1/1;
 7//1,2,3,16;
 1/14=-1,18=20,19=15,26=3/3(2);
 2/9=110/2;
 99//99;
 2/9=110/2;
 3/5=1,6=6,7=1,11=2,16=1,25=1,30=1,71=1,74=-5/1,2,3;
 4/5=5,16=3,69=1/1;
 5/5=2,38=5/2;
 7//1,2,3,16;
 1/14=-1,18=20,19=15,26=3/3(-5);
 2/9=110/2;
 6/7=2,8=2,9=2,10=2,19=2,28=1/1;
 99/9=1/99;
 -----
 title
 -----
 Symbolic Z-matrix:
 Charge =  0 Multiplicity = 1
 H                     0.        0.        0. 
 C                    -1.1       0.        0. 
 C                    -1.61      1.03      1.03 
 H                    -2.71      1.03      1.03 
 H                    -1.25      0.76      2.03 
 H                    -1.25      2.03      0.76 
 C                    -1.61      0.38     -1.4 
 H                    -2.71      0.38     -1.4 
 H                    -1.25      1.38     -1.67 
 H                    -1.25     -0.36     -2.14 
 C                    -1.61     -1.4       0.38 
 H                    -2.71     -1.4       0.38 
 H                    -1.25     -2.14     -0.36 
 H                    -1.25     -1.67      1.38 
 

 GradGradGradGradGradGradGradGradGradGradGradGradGradGradGradGradGradGrad
 Berny optimization.
 Initialization pass.
                           ----------------------------
                           !    Initial Parameters    !
                           ! (Angstroms and Degrees)  !
 --------------------------                            --------------------------
 ! Name  Definition              Value          Derivative Info.                !
 --------------------------------------------------------------------------------
 ! R1    R(1,2)                  1.1            estimate D2E/DX2                !
 ! R2    R(2,3)                  1.5433         estimate D2E/DX2                !
 ! R3    R(2,7)                  1.5377         estimate D2E/DX2                !
 ! R4    R(2,11)                 1.5377         estimate D2E/DX2                !
 ! R5    R(3,4)                  1.1            estimate D2E/DX2                !
 ! R6    R(3,5)                  1.0966         estimate D2E/DX2                !
 ! R7    R(3,6)                  1.0966         estimate D2E/DX2                !
 ! R8    R(7,8)                  1.1            estimate D2E/DX2                !
 ! R9    R(7,9)                  1.0966         estimate D2E/DX2                !
 ! R10   R(7,10)                 1.1067         estimate D2E/DX2                !
 ! R11   R(11,12)                1.1            estimate D2E/DX2                !
 ! R12   R(11,13)                1.1067         estimate D2E/DX2                !
 ! R13   R(11,14)                1.0966         estimate D2E/DX2                !
 ! A1    A(1,2,3)              109.2962         estimate D2E/DX2                !
 ! A2    A(1,2,7)              109.3699         estimate D2E/DX2                !
 ! A3    A(1,2,11)             109.3699         estimate D2E/DX2                !
 ! A4    A(3,2,7)              109.4568         estimate D2E/DX2                !
 ! A5    A(3,2,11)             109.4568         estimate D2E/DX2                !
 ! A6    A(7,2,11)             109.8761         estimate D2E/DX2                !
 ! A7    A(2,3,4)              109.2962         estimate D2E/DX2                !
 ! A8    A(2,3,5)              109.6208         estimate D2E/DX2                !
 ! A9    A(2,3,6)              109.6208         estimate D2E/DX2                !
 ! A10   A(4,3,5)              109.1651         estimate D2E/DX2                !
 ! A11   A(4,3,6)              109.1651         estimate D2E/DX2                !
 ! A12   A(5,3,6)              109.9554         estimate D2E/DX2                !
 ! A13   A(2,7,8)              109.3699         estimate D2E/DX2                !
 ! A14   A(2,7,9)              109.9162         estimate D2E/DX2                !
 ! A15   A(2,7,10)             109.612          estimate D2E/DX2                !
 ! A16   A(8,7,9)              109.1651         estimate D2E/DX2                !
 ! A17   A(8,7,10)             108.9831         estimate D2E/DX2                !
 ! A18   A(9,7,10)             109.7753         estimate D2E/DX2                !
 ! A19   A(2,11,12)            109.3699         estimate D2E/DX2                !
 ! A20   A(2,11,13)            109.612          estimate D2E/DX2                !
 ! A21   A(2,11,14)            109.9162         estimate D2E/DX2                !
 ! A22   A(12,11,13)           108.9831         estimate D2E/DX2                !
 ! A23   A(12,11,14)           109.1651         estimate D2E/DX2                !
 ! A24   A(13,11,14)           109.7753         estimate D2E/DX2                !
 ! D1    D(1,2,3,4)            180.0            estimate D2E/DX2                !
 ! D2    D(1,2,3,5)            -60.3903         estimate D2E/DX2                !
 ! D3    D(1,2,3,6)             60.3903         estimate D2E/DX2                !
 ! D4    D(7,2,3,4)             60.2394         estimate D2E/DX2                !
 ! D5    D(7,2,3,5)            179.8491         estimate D2E/DX2                !
 ! D6    D(7,2,3,6)            -59.3704         estimate D2E/DX2                !
 ! D7    D(11,2,3,4)           -60.2394         estimate D2E/DX2                !
 ! D8    D(11,2,3,5)            59.3704         estimate D2E/DX2                !
 ! D9    D(11,2,3,6)          -179.8491         estimate D2E/DX2                !
 ! D10   D(1,2,7,8)            180.0            estimate D2E/DX2                !
 ! D11   D(1,2,7,9)            -60.1651         estimate D2E/DX2                !
 ! D12   D(1,2,7,10)            60.5732         estimate D2E/DX2                !
 ! D13   D(3,2,7,8)            -60.2846         estimate D2E/DX2                !
 ! D14   D(3,2,7,9)             59.5503         estimate D2E/DX2                !
 ! D15   D(3,2,7,10)          -179.7115         estimate D2E/DX2                !
 ! D16   D(11,2,7,8)            59.9382         estimate D2E/DX2                !
 ! D17   D(11,2,7,9)           179.7731         estimate D2E/DX2                !
 ! D18   D(11,2,7,10)          -59.4886         estimate D2E/DX2                !
 ! D19   D(1,2,11,12)          180.0            estimate D2E/DX2                !
 ! D20   D(1,2,11,13)          -60.5732         estimate D2E/DX2                !
 ! D21   D(1,2,11,14)           60.1651         estimate D2E/DX2                !
 ! D22   D(3,2,11,12)           60.2846         estimate D2E/DX2                !
 ! D23   D(3,2,11,13)          179.7115         estimate D2E/DX2                !
 ! D24   D(3,2,11,14)          -59.5503         estimate D2E/DX2                !
 ! D25   D(7,2,11,12)          -59.9382         estimate D2E/DX2                !
 ! D26   D(7,2,11,13)           59.4886         estimate D2E/DX2                !
 ! D27   D(7,2,11,14)         -179.7731         estimate D2E/DX2                !
 --------------------------------------------------------------------------------
 Trust Radius=3.00D-01 FncErr=1.00D-07 GrdErr=1.00D-06
 Number of steps in this run=     74 maximum allowed number of steps=    100.
 GradGradGradGradGradGradGradGradGradGradGradGradGradGradGradGradGradGrad

                          Input orientation:                          
 ---------------------------------------------------------------------
 Center     Atomic      Atomic             Coordinates (Angstroms)
 Number     Number       Type             X           Y           Z
 ---------------------------------------------------------------------
      1          1           0        0.000000    0.000000    0.000000
      2          6           0       -1.100000    0.000000    0.000000
      3          6           0       -1.610000    1.030000    1.030000
      4          1           0       -2.710000    1.030000    1.030000
      5          1           0       -1.250000    0.760000    2.030000
      6          1           0       -1.250000    2.030000    0.760000
      7          6           0       -1.610000    0.380000   -1.400000
      8          1           0       -2.710000    0.380000   -1.400000
      9          1           0       -1.250000    1.380000   -1.670000
     10          1           0       -1.250000   -0.360000   -2.140000
     11          6           0       -1.610000   -1.400000    0.380000
     12          1           0       -2.710000   -1.400000    0.380000
     13          1           0       -1.250000   -2.140000   -0.360000
     14          1           0       -1.250000   -1.670000    1.380000
 ---------------------------------------------------------------------
                    Distance matrix (angstroms):
                    1          2          3          4          5
     1  H    0.000000
     2  C    1.100000   0.000000
     3  C    2.171152   1.543341   0.000000
     4  H    3.076670   2.171152   1.100000   0.000000
     5  H    2.502199   2.172786   1.096586   1.790112   0.000000
     6  H    2.502199   2.172786   1.096586   1.790112   1.796051
     7  C    2.167141   1.537693   2.515432   2.745433   3.469712
     8  H    3.073841   2.167141   2.745433   2.515432   3.747119
     9  H    2.501160   2.171589   2.746288   3.089353   3.751586
    10  H    2.504336   2.175247   3.480029   3.756674   4.317789
    11  C    2.167141   1.537693   2.515432   2.745433   2.741842
    12  H    3.073841   2.167141   2.745433   2.515432   3.085401
    13  H    2.504336   2.175247   3.480029   3.756674   3.757938
    14  H    2.501160   2.171589   2.746288   3.089353   2.515432
                    6          7          8          9         10
     6  H    0.000000
     7  C    2.741842   0.000000
     8  H    3.085401   1.100000   0.000000
     9  H    2.515432   1.096586   1.790112   0.000000
    10  H    3.757938   1.106707   1.796330   1.802360   0.000000
    11  C    3.469712   2.517300   2.747144   3.472823   2.749836
    12  H    3.747119   2.747144   2.517300   3.750000   3.092507
    13  H    4.317789   2.749836   3.092507   3.755862   2.517300
    14  H    3.751586   3.472823   3.750000   4.313351   3.755862
                   11         12         13         14
    11  C    0.000000
    12  H    1.100000   0.000000
    13  H    1.106707   1.796330   0.000000
    14  H    1.096586   1.790112   1.802360   0.000000
 Stoichiometry    C4H10
 Framework group  CS[SG(C2H2),X(C2H8)]
 Deg. of freedom    20
 Full point group                 CS      NOp   2
 Largest Abelian subgroup         CS      NOp   2
 Largest concise Abelian subgroup CS      NOp   2
                         Standard orientation:                         
 ---------------------------------------------------------------------
 Center     Atomic      Atomic             Coordinates (Angstroms)
 Number     Number       Type             X           Y           Z
 ---------------------------------------------------------------------
      1          1           0        1.231469    0.867214    0.000000
      2          6           0        0.333323    0.232129    0.000000
      3          6           0       -0.924082    1.127022    0.000000
      4          1           0       -1.822228    0.491936    0.000000
      5          1           0       -0.928164    1.756333    0.898026
      6          1           0       -0.928164    1.756333   -0.898026
      7          6           0        0.333323   -0.651217   -1.258650
      8          1           0       -0.564824   -1.286302   -1.258650
      9          1           0        0.329240   -0.021905   -2.156676
     10          1           0        1.231469   -1.297849   -1.258650
     11          6           0        0.333323   -0.651217    1.258650
     12          1           0       -0.564824   -1.286302    1.258650
     13          1           0        1.231469   -1.297849    1.258650
     14          1           0        0.329240   -0.021905    2.156676
 ---------------------------------------------------------------------
 Rotational constants (GHZ):      7.8004402      7.7948417      4.5624397
 Standard basis: 6-31G(d) (6D, 7F)
 There are    49 symmetry adapted cartesian basis functions of A'  symmetry.
 There are    31 symmetry adapted cartesian basis functions of A"  symmetry.
 There are    49 symmetry adapted basis functions of A'  symmetry.
 There are    31 symmetry adapted basis functions of A"  symmetry.
    80 basis functions,   152 primitive gaussians,    80 cartesian basis functions
    17 alpha electrons       17 beta electrons
       nuclear repulsion energy       134.3988192653 Hartrees.
 NAtoms=   14 NActive=   14 NUniq=    9 SFac= 2.42D+00 NAtFMM=   60 NAOKFM=F Big=F
 Integral buffers will be    131072 words long.
 Raffenetti 2 integral format.
 Two-electron integral symmetry is turned on.
 One-electron integrals computed using PRISM.
 NBasis=    80 RedAO= T EigKep=  5.22D-03  NBF=    49    31
 NBsUse=    80 1.00D-06 EigRej= -1.00D+00 NBFU=    49    31
 ExpMin= 1.61D-01 ExpMax= 3.05D+03 ExpMxC= 4.57D+02 IAcc=1 IRadAn=         1 AccDes= 0.00D+00
 Harris functional with IExCor=  402 and IRadAn=       1 diagonalized for initial guess.
 HarFok:  IExCor=  402 AccDes= 0.00D+00 IRadAn=         1 IDoV= 1 UseB2=F ITyADJ=14
 ICtDFT=  3500011 ScaDFX=  1.000000  1.000000  1.000000  1.000000
 FoFCou: FMM=F IPFlag=           0 FMFlag=      100000 FMFlg1=           0
         NFxFlg=           0 DoJE=T BraDBF=F KetDBF=T FulRan=T
         wScrn=  0.000000 ICntrl=     500 IOpCl=  0 I1Cent=   200000004 NGrid=           0
         NMat0=    1 NMatS0=      1 NMatT0=    0 NMatD0=    1 NMtDS0=    0 NMtDT0=    0
 Petite list used in FoFCou.
 Initial guess orbital symmetries:
       Occupied  (A') (A") (A') (A') (A') (A') (A") (A') (A') (A')
                 (A") (A') (A") (A") (A") (A') (A')
       Virtual   (A') (A') (A') (A") (A') (A") (A') (A") (A') (A')
                 (A') (A") (A") (A') (A") (A') (A") (A') (A') (A')
                 (A") (A') (A') (A") (A') (A") (A') (A") (A') (A")
                 (A") (A') (A') (A") (A') (A') (A") (A') (A") (A')
                 (A') (A") (A') (A") (A') (A") (A') (A') (A") (A')
                 (A') (A') (A") (A") (A') (A") (A') (A") (A') (A')
                 (A') (A") (A')
 The electronic state of the initial guess is 1-A'.
 Keep R1 ints in memory in symmetry-blocked form, NReq=7933739.
 Requested convergence on RMS density matrix=1.00D-08 within 128 cycles.
 Requested convergence on MAX density matrix=1.00D-06.
 Requested convergence on             energy=1.00D-06.
 No special actions if energy rises.
 Integral accuracy reduced to 1.0D-05 until final iterations.
 Initial convergence to 1.0D-05 achieved.  Increase integral accuracy.
 SCF Done:  E(RB3LYP) =  -158.457093870     A.U. after   12 cycles
            NFock= 12  Conv=0.62D-08     -V/T= 2.0107

 **********************************************************************

            Population analysis using the SCF density.

 **********************************************************************

 Orbital symmetries:
       Occupied  (A') (A") (A') (A') (A') (A") (A') (A') (A') (A')
                 (A") (A') (A") (A") (A') (A") (A')
       Virtual   (A') (A') (A') (A") (A") (A') (A') (A") (A') (A")
                 (A') (A') (A") (A') (A") (A') (A") (A') (A') (A')
                 (A') (A") (A") (A') (A") (A') (A') (A") (A") (A')
                 (A') (A") (A') (A") (A') (A') (A") (A') (A") (A')
                 (A') (A") (A') (A") (A') (A") (A') (A') (A") (A')
                 (A') (A') (A") (A") (A') (A") (A') (A") (A') (A')
                 (A") (A') (A')
 The electronic state is 1-A'.
 Alpha  occ. eigenvalues --  -10.18348 -10.16964 -10.16963 -10.16884  -0.79547
 Alpha  occ. eigenvalues --   -0.67413  -0.67400  -0.55202  -0.45752  -0.42545
 Alpha  occ. eigenvalues --   -0.42530  -0.37983  -0.37961  -0.36008  -0.32331
 Alpha  occ. eigenvalues --   -0.31812  -0.31566
 Alpha virt. eigenvalues --    0.08365   0.13158   0.15222   0.15341   0.16127
 Alpha virt. eigenvalues --    0.16183   0.17480   0.19835   0.19941   0.22820
 Alpha virt. eigenvalues --    0.23003   0.25229   0.25432   0.51793   0.51892
 Alpha virt. eigenvalues --    0.53322   0.53488   0.53578   0.63743   0.71610
 Alpha virt. eigenvalues --    0.72077   0.72150   0.72699   0.72730   0.86693
 Alpha virt. eigenvalues --    0.87805   0.89566   0.89871   0.90934   0.91056
 Alpha virt. eigenvalues --    0.93916   0.93954   0.96189   0.98506   0.98824
 Alpha virt. eigenvalues --    1.01914   1.42263   1.42393   1.46405   1.46521
 Alpha virt. eigenvalues --    1.64039   1.73912   1.80087   1.80222   1.93668
 Alpha virt. eigenvalues --    1.94063   2.00620   2.10582   2.10658   2.15797
 Alpha virt. eigenvalues --    2.23439   2.24000   2.24289   2.26132   2.47459
 Alpha virt. eigenvalues --    2.48705   2.48939   2.70174   2.70249   4.15119
 Alpha virt. eigenvalues --    4.29274   4.29325   4.55621
          Condensed to atoms (all electrons):
               1          2          3          4          5          6
     1  H    0.631713   0.382899  -0.045140   0.005674  -0.003047  -0.003047
     2  C    0.382899   4.827437   0.385775  -0.034937  -0.032055  -0.032055
     3  C   -0.045140   0.385775   5.101024   0.372793   0.369977   0.369977
     4  H    0.005674  -0.034937   0.372793   0.582198  -0.030243  -0.030243
     5  H   -0.003047  -0.032055   0.369977  -0.030243   0.579931  -0.028026
     6  H   -0.003047  -0.032055   0.369977  -0.030243  -0.028026   0.579931
     7  C   -0.045543   0.386647  -0.057459  -0.006425   0.005555  -0.003960
     8  H    0.005748  -0.035271  -0.006506   0.005820  -0.000015  -0.000253
     9  H   -0.003117  -0.031966  -0.004041  -0.000251  -0.000054   0.004468
    10  H   -0.003100  -0.032325   0.005568  -0.000022  -0.000211  -0.000060
    11  C   -0.045543   0.386647  -0.057459  -0.006425  -0.003960   0.005555
    12  H    0.005748  -0.035271  -0.006506   0.005820  -0.000253  -0.000015
    13  H   -0.003100  -0.032325   0.005568  -0.000022  -0.000060  -0.000211
    14  H   -0.003117  -0.031966  -0.004041  -0.000251   0.004468  -0.000054
               7          8          9         10         11         12
     1  H   -0.045543   0.005748  -0.003117  -0.003100  -0.045543   0.005748
     2  C    0.386647  -0.035271  -0.031966  -0.032325   0.386647  -0.035271
     3  C   -0.057459  -0.006506  -0.004041   0.005568  -0.057459  -0.006506
     4  H   -0.006425   0.005820  -0.000251  -0.000022  -0.006425   0.005820
     5  H    0.005555  -0.000015  -0.000054  -0.000211  -0.003960  -0.000253
     6  H   -0.003960  -0.000253   0.004468  -0.000060   0.005555  -0.000015
     7  C    5.099545   0.372645   0.370053   0.368917  -0.056888  -0.006486
     8  H    0.372645   0.582457  -0.030406  -0.030063  -0.006486   0.005843
     9  H    0.370053  -0.030406   0.579646  -0.028000   0.005539  -0.000019
    10  H    0.368917  -0.030063  -0.028000   0.583504  -0.004044  -0.000249
    11  C   -0.056888  -0.006486   0.005539  -0.004044   5.099545   0.372645
    12  H   -0.006486   0.005843  -0.000019  -0.000249   0.372645   0.582457
    13  H   -0.004044  -0.000249  -0.000055   0.004565   0.368917  -0.030063
    14  H    0.005539  -0.000019  -0.000211  -0.000055   0.370053  -0.030406
              13         14
     1  H   -0.003100  -0.003117
     2  C   -0.032325  -0.031966
     3  C    0.005568  -0.004041
     4  H   -0.000022  -0.000251
     5  H   -0.000060   0.004468
     6  H   -0.000211  -0.000054
     7  C   -0.004044   0.005539
     8  H   -0.000249  -0.000019
     9  H   -0.000055  -0.000211
    10  H    0.004565  -0.000055
    11  C    0.368917   0.370053
    12  H   -0.030063  -0.030406
    13  H    0.583504  -0.028000
    14  H   -0.028000   0.579646
 Mulliken charges:
               1
     1  H    0.122971
     2  C   -0.071236
     3  C   -0.429530
     4  H    0.136513
     5  H    0.137993
     6  H    0.137993
     7  C   -0.428096
     8  H    0.136755
     9  H    0.138414
    10  H    0.135575
    11  C   -0.428096
    12  H    0.136755
    13  H    0.135575
    14  H    0.138414
 Sum of Mulliken charges =   0.00000
 Mulliken charges with hydrogens summed into heavy atoms:
               1
     2  C    0.051735
     3  C   -0.017032
     7  C   -0.017352
    11  C   -0.017352
 Electronic spatial extent (au):  <R**2>=            351.6383
 Charge=              0.0000 electrons
 Dipole moment (field-independent basis, Debye):
    X=              0.0671    Y=              0.0638    Z=              0.0000  Tot=              0.0926
 Quadrupole moment (field-independent basis, Debye-Ang):
   XX=            -28.1663   YY=            -28.4502   ZZ=            -28.6838
   XY=              0.4117   XZ=              0.0000   YZ=              0.0000
 Traceless Quadrupole moment (field-independent basis, Debye-Ang):
   XX=              0.2672   YY=             -0.0168   ZZ=             -0.2504
   XY=              0.4117   XZ=              0.0000   YZ=              0.0000
 Octapole moment (field-independent basis, Debye-Ang**2):
  XXX=              0.9575  YYY=              0.1663  ZZZ=              0.0000  XYY=              0.6137
  XXY=             -1.6351  XXZ=              0.0000  XZZ=             -0.2874  YZZ=              2.6049
  YYZ=              0.0000  XYZ=              0.0000
 Hexadecapole moment (field-independent basis, Debye-Ang**3):
 XXXX=           -114.2014 YYYY=           -164.0125 ZZZZ=           -210.6368 XXXY=             34.6058
 XXXZ=              0.0000 YYYX=             34.3296 YYYZ=              0.0000 ZZZX=              0.0000
 ZZZY=              0.0000 XXYY=            -45.4253 XXZZ=            -55.2762 YYZZ=            -61.8210
 XXYZ=              0.0000 YYXZ=              0.0000 ZZXY=             11.3762
 N-N= 1.343988192653D+02 E-N=-6.341421083976D+02  KE= 1.567747385574D+02
 Symmetry A'   KE= 1.136881915804D+02
 Symmetry A"   KE= 4.308654697697D+01
 Calling FoFJK, ICntrl=      2127 FMM=F ISym2X=1 I1Cent= 0 IOpClX= 0 NMat=1 NMatS=1 NMatT=0.
 ***** Axes restored to original set *****
 -------------------------------------------------------------------
 Center     Atomic                   Forces (Hartrees/Bohr)
 Number     Number              X              Y              Z
 -------------------------------------------------------------------
      1        1          -0.000769924    0.000063644    0.000063644
      2        6          -0.012715025    0.002000350    0.002000350
      3        6           0.006498366   -0.006074982   -0.006074982
      4        1           0.002215581    0.002057768    0.002057768
      5        1          -0.001742464    0.004136467    0.001280635
      6        1          -0.001742464    0.001280635    0.004136467
      7        6           0.007394337   -0.006433224    0.001982398
      8        1           0.002130951    0.000777084   -0.002894664
      9        1          -0.001659268   -0.001001555   -0.003830495
     10        1          -0.003738055    0.006962953    0.000973621
     11        6           0.007394337    0.001982398   -0.006433224
     12        1           0.002130951   -0.002894664    0.000777084
     13        1          -0.003738055    0.000973621    0.006962953
     14        1          -0.001659268   -0.003830495   -0.001001555
 -------------------------------------------------------------------
 Cartesian Forces:  Max     0.012715025 RMS     0.004180351

 GradGradGradGradGradGradGradGradGradGradGradGradGradGradGradGradGradGrad
 Berny optimization.
 FormGI is forming the generalized inverse of G from B-inverse, IUseBI=4.
 Internal  Forces:  Max     0.006523234 RMS     0.002725637
 Search for a local minimum.
 Step number   1 out of a maximum of   74
 All quantities printed in internal units (Hartrees-Bohrs-Radians)
 Mixed Optimization -- RFO/linear search
 Second derivative matrix not updated -- first step.
 ITU=  0
     Eigenvalues ---    0.00230   0.00267   0.00267   0.03895   0.04612
     Eigenvalues ---    0.04647   0.05666   0.05666   0.05670   0.05744
     Eigenvalues ---    0.05752   0.05752   0.16000   0.16000   0.16000
     Eigenvalues ---    0.16000   0.16000   0.16000   0.16000   0.16000
     Eigenvalues ---    0.16000   0.16087   0.16179   0.28225   0.28724
     Eigenvalues ---    0.28724   0.32951   0.32951   0.33682   0.33682
     Eigenvalues ---    0.33682   0.33682   0.34063   0.34063   0.34063
     Eigenvalues ---    0.34063
 RFO step:  Lambda=-3.39494152D-03 EMin= 2.30000000D-03
 Linear search not attempted -- first point.
 Iteration  1 RMS(Cart)=  0.03594942 RMS(Int)=  0.00071223
 Iteration  2 RMS(Cart)=  0.00067595 RMS(Int)=  0.00036993
 Iteration  3 RMS(Cart)=  0.00000012 RMS(Int)=  0.00036993
 ClnCor:  largest displacement from symmetrization is 6.31D-09 for atom    12.
 Variable       Old X    -DE/DX   Delta X   Delta X   Delta X     New X
                                 (Linear)    (Quad)   (Total)
    R1        2.07870  -0.00077   0.00000  -0.00226  -0.00226   2.07644
    R2        2.91649   0.00014   0.00000   0.00048   0.00048   2.91697
    R3        2.90582   0.00214   0.00000   0.00736   0.00736   2.91318
    R4        2.90582   0.00214   0.00000   0.00736   0.00736   2.91318
    R5        2.07870  -0.00222   0.00000  -0.00652  -0.00652   2.07218
    R6        2.07225  -0.00042   0.00000  -0.00123  -0.00123   2.07102
    R7        2.07225  -0.00042   0.00000  -0.00123  -0.00123   2.07102
    R8        2.07870  -0.00213   0.00000  -0.00626  -0.00626   2.07244
    R9        2.07225  -0.00052   0.00000  -0.00150  -0.00150   2.07075
   R10        2.09137  -0.00652   0.00000  -0.01959  -0.01959   2.07178
   R11        2.07870  -0.00213   0.00000  -0.00626  -0.00626   2.07244
   R12        2.09137  -0.00652   0.00000  -0.01959  -0.01959   2.07178
   R13        2.07225  -0.00052   0.00000  -0.00150  -0.00150   2.07075
    A1        1.90758  -0.00144   0.00000  -0.02892  -0.02837   1.87921
    A2        1.90886  -0.00106   0.00000  -0.02771  -0.02725   1.88162
    A3        1.90886  -0.00106   0.00000  -0.02771  -0.02725   1.88162
    A4        1.91038   0.00148   0.00000   0.02993   0.02866   1.93905
    A5        1.91038   0.00148   0.00000   0.02993   0.02866   1.93905
    A6        1.91770   0.00059   0.00000   0.02410   0.02266   1.94036
    A7        1.90758   0.00239   0.00000   0.01486   0.01461   1.92219
    A8        1.91324   0.00506   0.00000   0.03087   0.03050   1.94374
    A9        1.91324   0.00506   0.00000   0.03087   0.03050   1.94374
   A10        1.90529  -0.00367   0.00000  -0.02226  -0.02250   1.88279
   A11        1.90529  -0.00367   0.00000  -0.02226  -0.02250   1.88279
   A12        1.91908  -0.00520   0.00000  -0.03228  -0.03274   1.88635
   A13        1.90886   0.00259   0.00000   0.01621   0.01596   1.92482
   A14        1.91840   0.00445   0.00000   0.02680   0.02648   1.94488
   A15        1.91309   0.00509   0.00000   0.03124   0.03088   1.94397
   A16        1.90529  -0.00355   0.00000  -0.02185  -0.02205   1.88324
   A17        1.90211  -0.00371   0.00000  -0.02189  -0.02217   1.87994
   A18        1.91594  -0.00496   0.00000  -0.03099  -0.03138   1.88456
   A19        1.90886   0.00259   0.00000   0.01621   0.01596   1.92482
   A20        1.91309   0.00509   0.00000   0.03124   0.03088   1.94397
   A21        1.91840   0.00445   0.00000   0.02680   0.02648   1.94488
   A22        1.90211  -0.00371   0.00000  -0.02189  -0.02217   1.87994
   A23        1.90529  -0.00355   0.00000  -0.02185  -0.02205   1.88324
   A24        1.91594  -0.00496   0.00000  -0.03099  -0.03138   1.88456
    D1        3.14159   0.00000   0.00000   0.00000   0.00000   3.14159
    D2       -1.05401   0.00003   0.00000   0.00053   0.00048  -1.05353
    D3        1.05401  -0.00003   0.00000  -0.00053  -0.00048   1.05353
    D4        1.05138   0.00128   0.00000   0.03328   0.03355   1.08493
    D5        3.13896   0.00131   0.00000   0.03381   0.03403  -3.11020
    D6       -1.03621   0.00124   0.00000   0.03274   0.03308  -1.00313
    D7       -1.05138  -0.00128   0.00000  -0.03328  -0.03355  -1.08493
    D8        1.03621  -0.00124   0.00000  -0.03274  -0.03308   1.00313
    D9       -3.13896  -0.00131   0.00000  -0.03381  -0.03403   3.11020
   D10        3.14159   0.00001   0.00000  -0.00043  -0.00040   3.14119
   D11       -1.05008  -0.00001   0.00000  -0.00078  -0.00082  -1.05090
   D12        1.05720  -0.00011   0.00000  -0.00243  -0.00239   1.05482
   D13       -1.05217  -0.00149   0.00000  -0.03444  -0.03463  -1.08679
   D14        1.03935  -0.00152   0.00000  -0.03479  -0.03504   1.00430
   D15       -3.13656  -0.00162   0.00000  -0.03644  -0.03661   3.11002
   D16        1.04612   0.00162   0.00000   0.03599   0.03620   1.08232
   D17        3.13763   0.00160   0.00000   0.03564   0.03578  -3.10977
   D18       -1.03827   0.00150   0.00000   0.03400   0.03421  -1.00406
   D19        3.14159  -0.00001   0.00000   0.00043   0.00040  -3.14119
   D20       -1.05720   0.00011   0.00000   0.00243   0.00239  -1.05482
   D21        1.05008   0.00001   0.00000   0.00078   0.00082   1.05090
   D22        1.05217   0.00149   0.00000   0.03444   0.03463   1.08679
   D23        3.13656   0.00162   0.00000   0.03644   0.03661  -3.11002
   D24       -1.03935   0.00152   0.00000   0.03479   0.03504  -1.00430
   D25       -1.04612  -0.00162   0.00000  -0.03599  -0.03620  -1.08232
   D26        1.03827  -0.00150   0.00000  -0.03400  -0.03421   1.00406
   D27       -3.13763  -0.00160   0.00000  -0.03564  -0.03578   3.10977
         Item               Value     Threshold  Converged?
 Maximum Force            0.006523     0.000450     NO 
 RMS     Force            0.002726     0.000300     NO 
 Maximum Displacement     0.118976     0.001800     NO 
 RMS     Displacement     0.035634     0.001200     NO 
 Predicted change in Energy=-1.796339D-03
 GradGradGradGradGradGradGradGradGradGradGradGradGradGradGradGradGradGrad

                          Input orientation:                          
 ---------------------------------------------------------------------
 Center     Atomic      Atomic             Coordinates (Angstroms)
 Number     Number       Type             X           Y           Z
 ---------------------------------------------------------------------
      1          1           0       -0.035469    0.001279    0.001279
      2          6           0       -1.134271    0.000844    0.000844
      3          6           0       -1.603645    1.040647    1.040647
      4          1           0       -2.699209    1.073527    1.073527
      5          1           0       -1.244277    0.790893    2.045413
      6          1           0       -1.244277    2.045413    0.790893
      7          6           0       -1.605344    0.381904   -1.416681
      8          1           0       -2.700995    0.393376   -1.462960
      9          1           0       -1.245635    1.376181   -1.704403
     10          1           0       -1.247452   -0.336586   -2.163435
     11          6           0       -1.605344   -1.416681    0.381904
     12          1           0       -2.700995   -1.462960    0.393376
     13          1           0       -1.247452   -2.163435   -0.336586
     14          1           0       -1.245635   -1.704403    1.376181
 ---------------------------------------------------------------------
                    Distance matrix (angstroms):
                    1          2          3          4          5
     1  H    0.000000
     2  C    1.098802   0.000000
     3  C    2.149359   1.543596   0.000000
     4  H    3.065117   2.179525   1.096550   0.000000
     5  H    2.502636   2.194661   1.095937   1.772363   0.000000
     6  H    2.502636   2.194661   1.095937   1.772363   1.774159
     7  C    2.149417   1.541588   2.544092   2.806425   3.504816
     8  H    3.066392   2.179776   2.809124   2.626095   3.819519
     9  H    2.502840   2.193586   2.788557   3.149821   3.795218
    10  H    2.503806   2.193348   3.505679   3.817584   4.357249
    11  C    2.149417   1.541588   2.544092   2.806425   2.787654
    12  H    3.066392   2.179776   2.809124   2.626095   3.151365
    13  H    2.503806   2.193348   3.505679   3.817584   3.794995
    14  H    2.502840   2.193586   2.788557   3.149821   2.583481
                    6          7          8          9         10
     6  H    0.000000
     7  C    2.787654   0.000000
     8  H    3.151365   1.096687   0.000000
     9  H    2.583481   1.095793   1.772646   0.000000
    10  H    3.794995   1.096338   1.770959   1.773213   0.000000
    11  C    3.504816   2.543583   2.807183   3.504589   2.788090
    12  H    3.819519   2.807183   2.625255   3.818307   3.149411
    13  H    4.357249   2.788090   3.149411   3.794709   2.583555
    14  H    3.795218   3.504589   3.818307   4.356604   3.794709
                   11         12         13         14
    11  C    0.000000
    12  H    1.096687   0.000000
    13  H    1.096338   1.770959   0.000000
    14  H    1.095793   1.772646   1.773213   0.000000
 Stoichiometry    C4H10
 Framework group  CS[SG(C2H2),X(C2H8)]
 Deg. of freedom    20
 Full point group                 CS      NOp   2
 Largest Abelian subgroup         CS      NOp   2
 Largest concise Abelian subgroup CS      NOp   2
                         Standard orientation:                         
 ---------------------------------------------------------------------
 Center     Atomic      Atomic             Coordinates (Angstroms)
 Number     Number       Type             X           Y           Z
 ---------------------------------------------------------------------
      1          1           0        1.473444    0.000717    0.000000
      2          6           0        0.374642   -0.000745    0.000000
      3          6           0       -0.095866    1.469395    0.000000
      4          1           0       -1.191465    1.515051    0.000000
      5          1           0        0.263091    2.003546    0.887079
      6          1           0        0.263091    2.003546   -0.887079
      7          6           0       -0.095866   -0.734000   -1.271791
      8          1           0       -1.191497   -0.759457   -1.312627
      9          1           0        0.263458   -0.234113   -2.178302
     10          1           0        0.262825   -1.769808   -1.291778
     11          6           0       -0.095866   -0.734000    1.271791
     12          1           0       -1.191497   -0.759457    1.312627
     13          1           0        0.262825   -1.769808    1.291778
     14          1           0        0.263458   -0.234113    2.178302
 ---------------------------------------------------------------------
 Rotational constants (GHZ):      7.6904490      7.6875287      4.4473339
 Standard basis: 6-31G(d) (6D, 7F)
 There are    49 symmetry adapted cartesian basis functions of A'  symmetry.
 There are    31 symmetry adapted cartesian basis functions of A"  symmetry.
 There are    49 symmetry adapted basis functions of A'  symmetry.
 There are    31 symmetry adapted basis functions of A"  symmetry.
    80 basis functions,   152 primitive gaussians,    80 cartesian basis functions
    17 alpha electrons       17 beta electrons
       nuclear repulsion energy       133.7502226935 Hartrees.
 NAtoms=   14 NActive=   14 NUniq=    9 SFac= 2.42D+00 NAtFMM=   60 NAOKFM=F Big=F
 Integral buffers will be    131072 words long.
 Raffenetti 2 integral format.
 Two-electron integral symmetry is turned on.
 One-electron integrals computed using PRISM.
 NBasis=    80 RedAO= T EigKep=  5.47D-03  NBF=    49    31
 NBsUse=    80 1.00D-06 EigRej= -1.00D+00 NBFU=    49    31
 Initial guess from the checkpoint file:  "/scratch/rpaton/561421/Gau-4564.chk"
 B after Tr=     0.000000    0.000000    0.000000
         Rot=    0.953112    0.000000    0.000000    0.302618 Ang=  35.23 deg.
 Initial guess orbital symmetries:
       Occupied  (A') (A") (A') (A') (A') (A") (A') (A') (A') (A')
                 (A") (A') (A") (A") (A') (A") (A')
       Virtual   (A') (A') (A') (A') (A') (A') (A') (A') (A') (A')
                 (A') (A') (A') (A') (A') (A') (A') (A') (A') (A')
                 (A') (A') (A') (A') (A') (A') (A') (A') (A') (A')
                 (A') (A') (A') (A') (A') (A') (A') (A') (A") (A")
                 (A") (A") (A") (A") (A") (A") (A") (A") (A") (A")
                 (A") (A") (A") (A") (A") (A") (A") (A") (A") (A")
                 (A") (A") (A")
 ExpMin= 1.61D-01 ExpMax= 3.05D+03 ExpMxC= 4.57D+02 IAcc=1 IRadAn=         1 AccDes= 0.00D+00
 Harris functional with IExCor=  402 and IRadAn=       1 diagonalized for initial guess.
 HarFok:  IExCor=  402 AccDes= 0.00D+00 IRadAn=         1 IDoV= 1 UseB2=F ITyADJ=14
 ICtDFT=  3500011 ScaDFX=  1.000000  1.000000  1.000000  1.000000
 FoFCou: FMM=F IPFlag=           0 FMFlag=      100000 FMFlg1=           0
         NFxFlg=           0 DoJE=T BraDBF=F KetDBF=T FulRan=T
         wScrn=  0.000000 ICntrl=     500 IOpCl=  0 I1Cent=   200000004 NGrid=           0
         NMat0=    1 NMatS0=      1 NMatT0=    0 NMatD0=    1 NMtDS0=    0 NMtDT0=    0
 Petite list used in FoFCou.
 Keep R1 ints in memory in symmetry-blocked form, NReq=7933739.
 Requested convergence on RMS density matrix=1.00D-08 within 128 cycles.
 Requested convergence on MAX density matrix=1.00D-06.
 Requested convergence on             energy=1.00D-06.
 No special actions if energy rises.
 Integral accuracy reduced to 1.0D-05 until final iterations.
 Initial convergence to 1.0D-05 achieved.  Increase integral accuracy.
 SCF Done:  E(RB3LYP) =  -158.458703785     A.U. after    9 cycles
            NFock=  9  Conv=0.98D-08     -V/T= 2.0107
 Calling FoFJK, ICntrl=      2127 FMM=F ISym2X=1 I1Cent= 0 IOpClX= 0 NMat=1 NMatS=1 NMatT=0.
 ***** Axes restored to original set *****
 -------------------------------------------------------------------
 Center     Atomic                   Forces (Hartrees/Bohr)
 Number     Number              X              Y              Z
 -------------------------------------------------------------------
      1        1           0.000991066   -0.000117379   -0.000117379
      2        6          -0.001280575    0.000760446    0.000760446
      3        6           0.000819046   -0.003943104   -0.003943104
      4        1          -0.000921295    0.000782059    0.000782059
      5        1           0.000109913   -0.000016537    0.000240602
      6        1           0.000109913    0.000240602   -0.000016537
      7        6           0.000713832   -0.001668599    0.004087545
      8        1          -0.000832436    0.000354714   -0.000782187
      9        1           0.000056795    0.000356682    0.000018277
     10        1           0.000147775   -0.000078782    0.000006263
     11        6           0.000713832    0.004087545   -0.001668599
     12        1          -0.000832436   -0.000782187    0.000354714
     13        1           0.000147775    0.000006263   -0.000078782
     14        1           0.000056795    0.000018277    0.000356682
 -------------------------------------------------------------------
 Cartesian Forces:  Max     0.004087545 RMS     0.001388457

 GradGradGradGradGradGradGradGradGradGradGradGradGradGradGradGradGradGrad
 Berny optimization.
 Using GEDIIS/GDIIS optimizer.
 FormGI is forming the generalized inverse of G from B-inverse, IUseBI=4.
 Internal  Forces:  Max     0.003994978 RMS     0.000888605
 Search for a local minimum.
 Step number   2 out of a maximum of   74
 All quantities printed in internal units (Hartrees-Bohrs-Radians)
 Mixed Optimization -- En-DIIS/RFO-DIIS
 Update second derivatives using D2CorX and points    1    2
 DE= -1.61D-03 DEPred=-1.80D-03 R= 8.96D-01
 TightC=F SS=  1.41D+00  RLast= 1.98D-01 DXNew= 5.0454D-01 5.9386D-01
 Trust test= 8.96D-01 RLast= 1.98D-01 DXMaxT set to 5.05D-01
 ITU=  1  0
 Use linear search instead of GDIIS.
     Eigenvalues ---    0.00230   0.00267   0.00267   0.03824   0.04746
     Eigenvalues ---    0.04749   0.05366   0.05381   0.05381   0.05516
     Eigenvalues ---    0.05518   0.05520   0.13803   0.16000   0.16000
     Eigenvalues ---    0.16000   0.16000   0.16000   0.16000   0.16000
     Eigenvalues ---    0.16746   0.16829   0.16850   0.28289   0.28724
     Eigenvalues ---    0.30123   0.32951   0.33060   0.33676   0.33682
     Eigenvalues ---    0.33682   0.34028   0.34063   0.34063   0.34063
     Eigenvalues ---    0.35243
 RFO step:  Lambda=-1.97779279D-04 EMin= 2.30000000D-03
 Quartic linear search produced a step of -0.02902.
 Iteration  1 RMS(Cart)=  0.00506292 RMS(Int)=  0.00002472
 Iteration  2 RMS(Cart)=  0.00002076 RMS(Int)=  0.00000985
 Iteration  3 RMS(Cart)=  0.00000000 RMS(Int)=  0.00000985
 ClnCor:  largest displacement from symmetrization is 3.01D-10 for atom     4.
 Variable       Old X    -DE/DX   Delta X   Delta X   Delta X     New X
                                 (Linear)    (Quad)   (Total)
    R1        2.07644   0.00099   0.00007   0.00265   0.00272   2.07915
    R2        2.91697  -0.00399  -0.00001  -0.01368  -0.01369   2.90328
    R3        2.91318  -0.00334  -0.00021  -0.01063  -0.01084   2.90234
    R4        2.91318  -0.00334  -0.00021  -0.01063  -0.01084   2.90234
    R5        2.07218   0.00097   0.00019   0.00220   0.00239   2.07456
    R6        2.07102   0.00026   0.00004   0.00063   0.00067   2.07169
    R7        2.07102   0.00026   0.00004   0.00063   0.00067   2.07169
    R8        2.07244   0.00087   0.00018   0.00194   0.00213   2.07456
    R9        2.07075   0.00034   0.00004   0.00083   0.00087   2.07162
   R10        2.07178   0.00010   0.00057  -0.00147  -0.00090   2.07088
   R11        2.07244   0.00087   0.00018   0.00194   0.00213   2.07456
   R12        2.07178   0.00010   0.00057  -0.00147  -0.00090   2.07088
   R13        2.07075   0.00034   0.00004   0.00083   0.00087   2.07162
    A1        1.87921   0.00012   0.00082   0.00108   0.00189   1.88109
    A2        1.88162   0.00007   0.00079  -0.00056   0.00022   1.88184
    A3        1.88162   0.00007   0.00079  -0.00056   0.00022   1.88184
    A4        1.93905  -0.00003  -0.00083   0.00063  -0.00017   1.93887
    A5        1.93905  -0.00003  -0.00083   0.00063  -0.00017   1.93887
    A6        1.94036  -0.00018  -0.00066  -0.00121  -0.00182   1.93854
    A7        1.92219   0.00161  -0.00042   0.01243   0.01200   1.93418
    A8        1.94374  -0.00025  -0.00089   0.00044  -0.00044   1.94330
    A9        1.94374  -0.00025  -0.00089   0.00044  -0.00044   1.94330
   A10        1.88279  -0.00057   0.00065  -0.00416  -0.00352   1.87927
   A11        1.88279  -0.00057   0.00065  -0.00416  -0.00352   1.87927
   A12        1.88635  -0.00001   0.00095  -0.00559  -0.00463   1.88172
   A13        1.92482   0.00126  -0.00046   0.01006   0.00960   1.93442
   A14        1.94488  -0.00032  -0.00077  -0.00047  -0.00123   1.94364
   A15        1.94397  -0.00032  -0.00090   0.00060  -0.00030   1.94367
   A16        1.88324  -0.00047   0.00064  -0.00451  -0.00387   1.87937
   A17        1.87994  -0.00032   0.00064  -0.00230  -0.00167   1.87828
   A18        1.88456   0.00014   0.00091  -0.00386  -0.00295   1.88161
   A19        1.92482   0.00126  -0.00046   0.01006   0.00960   1.93442
   A20        1.94397  -0.00032  -0.00090   0.00060  -0.00030   1.94367
   A21        1.94488  -0.00032  -0.00077  -0.00047  -0.00123   1.94364
   A22        1.87994  -0.00032   0.00064  -0.00230  -0.00167   1.87828
   A23        1.88324  -0.00047   0.00064  -0.00451  -0.00387   1.87937
   A24        1.88456   0.00014   0.00091  -0.00386  -0.00295   1.88161
    D1        3.14159   0.00000   0.00000   0.00000   0.00000   3.14159
    D2       -1.05353   0.00018  -0.00001   0.00326   0.00325  -1.05028
    D3        1.05353  -0.00018   0.00001  -0.00326  -0.00325   1.05028
    D4        1.08493  -0.00014  -0.00097  -0.00033  -0.00131   1.08362
    D5       -3.11020   0.00004  -0.00099   0.00293   0.00194  -3.10825
    D6       -1.00313  -0.00032  -0.00096  -0.00359  -0.00456  -1.00769
    D7       -1.08493   0.00014   0.00097   0.00033   0.00131  -1.08362
    D8        1.00313   0.00032   0.00096   0.00359   0.00456   1.00769
    D9        3.11020  -0.00004   0.00099  -0.00293  -0.00194   3.10825
   D10        3.14119   0.00001   0.00001  -0.00278  -0.00277   3.13842
   D11       -1.05090   0.00005   0.00002  -0.00208  -0.00205  -1.05295
   D12        1.05482  -0.00022   0.00007  -0.00692  -0.00685   1.04796
   D13       -1.08679   0.00018   0.00101  -0.00146  -0.00045  -1.08724
   D14        1.00430   0.00022   0.00102  -0.00075   0.00027   1.00457
   D15        3.11002  -0.00005   0.00106  -0.00560  -0.00453   3.10549
   D16        1.08232  -0.00002  -0.00105  -0.00108  -0.00213   1.08019
   D17       -3.10977   0.00002  -0.00104  -0.00037  -0.00141  -3.11118
   D18       -1.00406  -0.00025  -0.00099  -0.00521  -0.00621  -1.01027
   D19       -3.14119  -0.00001  -0.00001   0.00278   0.00277  -3.13842
   D20       -1.05482   0.00022  -0.00007   0.00692   0.00685  -1.04796
   D21        1.05090  -0.00005  -0.00002   0.00208   0.00205   1.05295
   D22        1.08679  -0.00018  -0.00101   0.00146   0.00045   1.08724
   D23       -3.11002   0.00005  -0.00106   0.00560   0.00453  -3.10549
   D24       -1.00430  -0.00022  -0.00102   0.00075  -0.00027  -1.00457
   D25       -1.08232   0.00002   0.00105   0.00108   0.00213  -1.08019
   D26        1.00406   0.00025   0.00099   0.00521   0.00621   1.01027
   D27        3.10977  -0.00002   0.00104   0.00037   0.00141   3.11118
         Item               Value     Threshold  Converged?
 Maximum Force            0.003995     0.000450     NO 
 RMS     Force            0.000889     0.000300     NO 
 Maximum Displacement     0.011740     0.001800     NO 
 RMS     Displacement     0.005065     0.001200     NO 
 Predicted change in Energy=-1.006116D-04
 GradGradGradGradGradGradGradGradGradGradGradGradGradGradGradGradGradGrad

                          Input orientation:                          
 ---------------------------------------------------------------------
 Center     Atomic      Atomic             Coordinates (Angstroms)
 Number     Number       Type             X           Y           Z
 ---------------------------------------------------------------------
      1          1           0       -0.035604    0.000532    0.000532
      2          6           0       -1.135843    0.001101    0.001101
      3          6           0       -1.603887    1.035824    1.035824
      4          1           0       -2.700109    1.077584    1.077584
      5          1           0       -1.241754    0.787533    2.040347
      6          1           0       -1.241754    2.040347    0.787533
      7          6           0       -1.606425    0.379783   -1.410987
      8          1           0       -2.702738    0.392141   -1.466995
      9          1           0       -1.247151    1.374875   -1.698190
     10          1           0       -1.244212   -0.335757   -2.157791
     11          6           0       -1.606425   -1.410987    0.379783
     12          1           0       -2.702738   -1.466995    0.392141
     13          1           0       -1.244212   -2.157791   -0.335757
     14          1           0       -1.247151   -1.698190    1.374875
 ---------------------------------------------------------------------
                    Distance matrix (angstroms):
                    1          2          3          4          5
     1  H    0.000000
     2  C    1.100240   0.000000
     3  C    2.145500   1.536349   0.000000
     4  H    3.069148   2.182787   1.097812   0.000000
     5  H    2.497000   2.188200   1.096291   1.771396   0.000000
     6  H    2.497000   2.188200   1.096291   1.771396   1.771746
     7  C    2.145623   1.535851   2.533235   2.806431   3.494417
     8  H    3.069299   2.182516   2.808185   2.635284   3.819981
     9  H    2.498464   2.187975   2.777958   3.147125   3.784397
    10  H    2.496434   2.187699   3.494249   3.819007   4.345819
    11  C    2.145623   1.535851   2.533235   2.806431   2.779199
    12  H    3.069299   2.182516   2.808185   2.635284   3.151818
    13  H    2.496434   2.187699   3.494249   3.819007   3.784284
    14  H    2.498464   2.187975   2.777958   3.147125   2.573267
                    6          7          8          9         10
     6  H    0.000000
     7  C    2.779199   0.000000
     8  H    3.151818   1.097812   0.000000
     9  H    2.573267   1.096253   1.771427   0.000000
    10  H    3.784284   1.095861   1.770404   1.771300   0.000000
    11  C    3.494417   2.532532   2.804240   3.494007   2.779676
    12  H    3.819981   2.804240   2.629215   3.816339   3.147880
    13  H    4.345819   2.779676   3.147880   3.786286   2.576745
    14  H    3.784397   3.494007   3.816339   4.345971   3.786286
                   11         12         13         14
    11  C    0.000000
    12  H    1.097812   0.000000
    13  H    1.095861   1.770404   0.000000
    14  H    1.096253   1.771427   1.771300   0.000000
 Stoichiometry    C4H10
 Framework group  CS[SG(C2H2),X(C2H8)]
 Deg. of freedom    20
 Full point group                 CS      NOp   2
 Largest Abelian subgroup         CS      NOp   2
 Largest concise Abelian subgroup CS      NOp   2
                         Standard orientation:                         
 ---------------------------------------------------------------------
 Center     Atomic      Atomic             Coordinates (Angstroms)
 Number     Number       Type             X           Y           Z
 ---------------------------------------------------------------------
      1          1           0        1.473894    0.000436    0.000000
      2          6           0        0.373654   -0.000033    0.000000
      3          6           0       -0.096082    1.462745    0.000000
      4          1           0       -1.192372    1.520534    0.000000
      5          1           0        0.265432    1.997900    0.885873
      6          1           0        0.265432    1.997900   -0.885873
      7          6           0       -0.096082   -0.731305   -1.266266
      8          1           0       -1.192358   -0.763438   -1.314607
      9          1           0        0.262613   -0.230336   -2.172985
     10          1           0        0.267327   -1.764918   -1.288372
     11          6           0       -0.096082   -0.731305    1.266266
     12          1           0       -1.192358   -0.763438    1.314607
     13          1           0        0.267327   -1.764918    1.288372
     14          1           0        0.262613   -0.230336    2.172985
 ---------------------------------------------------------------------
 Rotational constants (GHZ):      7.7361106      7.7318524      4.4780098
 Standard basis: 6-31G(d) (6D, 7F)
 There are    49 symmetry adapted cartesian basis functions of A'  symmetry.
 There are    31 symmetry adapted cartesian basis functions of A"  symmetry.
 There are    49 symmetry adapted basis functions of A'  symmetry.
 There are    31 symmetry adapted basis functions of A"  symmetry.
    80 basis functions,   152 primitive gaussians,    80 cartesian basis functions
    17 alpha electrons       17 beta electrons
       nuclear repulsion energy       134.0591014784 Hartrees.
 NAtoms=   14 NActive=   14 NUniq=    9 SFac= 2.42D+00 NAtFMM=   60 NAOKFM=F Big=F
 Integral buffers will be    131072 words long.
 Raffenetti 2 integral format.
 Two-electron integral symmetry is turned on.
 One-electron integrals computed using PRISM.
 NBasis=    80 RedAO= T EigKep=  5.38D-03  NBF=    49    31
 NBsUse=    80 1.00D-06 EigRej= -1.00D+00 NBFU=    49    31
 Initial guess from the checkpoint file:  "/scratch/rpaton/561421/Gau-4564.chk"
 B after Tr=     0.000000    0.000000    0.000000
         Rot=    1.000000    0.000000    0.000000   -0.000141 Ang=  -0.02 deg.
 Initial guess orbital symmetries:
       Occupied  (A') (A") (A') (A') (A') (A") (A') (A') (A') (A")
                 (A') (A') (A") (A") (A") (A') (A')
       Virtual   (A') (A') (A') (A') (A') (A') (A') (A') (A') (A')
                 (A') (A') (A') (A') (A') (A') (A') (A') (A') (A')
                 (A') (A') (A') (A') (A') (A') (A') (A') (A') (A')
                 (A') (A') (A') (A') (A') (A') (A') (A') (A") (A")
                 (A") (A") (A") (A") (A") (A") (A") (A") (A") (A")
                 (A") (A") (A") (A") (A") (A") (A") (A") (A") (A")
                 (A") (A") (A")
 Keep R1 ints in memory in symmetry-blocked form, NReq=7933739.
 Requested convergence on RMS density matrix=1.00D-08 within 128 cycles.
 Requested convergence on MAX density matrix=1.00D-06.
 Requested convergence on             energy=1.00D-06.
 No special actions if energy rises.
 SCF Done:  E(RB3LYP) =  -158.458811638     A.U. after    8 cycles
            NFock=  8  Conv=0.25D-08     -V/T= 2.0105
 Calling FoFJK, ICntrl=      2127 FMM=F ISym2X=1 I1Cent= 0 IOpClX= 0 NMat=1 NMatS=1 NMatT=0.
 ***** Axes restored to original set *****
 -------------------------------------------------------------------
 Center     Atomic                   Forces (Hartrees/Bohr)
 Number     Number              X              Y              Z
 -------------------------------------------------------------------
      1        1           0.000146602   -0.000028047   -0.000028047
      2        6          -0.000696507    0.000175738    0.000175738
      3        6           0.000312854   -0.000556385   -0.000556385
      4        1          -0.000161364    0.000069047    0.000069047
      5        1           0.000017289   -0.000045005    0.000248106
      6        1           0.000017289    0.000248106   -0.000045005
      7        6           0.000152469    0.000003582    0.000606505
      8        1          -0.000150434    0.000045091   -0.000009649
      9        1           0.000012541    0.000253663   -0.000048655
     10        1           0.000167342   -0.000378557   -0.000335434
     11        6           0.000152469    0.000606505    0.000003582
     12        1          -0.000150434   -0.000009649    0.000045091
     13        1           0.000167342   -0.000335434   -0.000378557
     14        1           0.000012541   -0.000048655    0.000253663
 -------------------------------------------------------------------
 Cartesian Forces:  Max     0.000696507 RMS     0.000266521

 GradGradGradGradGradGradGradGradGradGradGradGradGradGradGradGradGradGrad
 Berny optimization.
 Using GEDIIS/GDIIS optimizer.
 FormGI is forming the generalized inverse of G from B-inverse, IUseBI=4.
 Internal  Forces:  Max     0.000530612 RMS     0.000142725
 Search for a local minimum.
 Step number   3 out of a maximum of   74
 All quantities printed in internal units (Hartrees-Bohrs-Radians)
 Mixed Optimization -- En-DIIS/RFO-DIIS
 Swapping is turned off.
 Update second derivatives using D2CorX and points    1    2    3
 DE= -1.08D-04 DEPred=-1.01D-04 R= 1.07D+00
 TightC=F SS=  1.41D+00  RLast= 3.48D-02 DXNew= 8.4853D-01 1.0435D-01
 Trust test= 1.07D+00 RLast= 3.48D-02 DXMaxT set to 5.05D-01
 ITU=  1  1  0
     Eigenvalues ---    0.00230   0.00267   0.00267   0.03790   0.04736
     Eigenvalues ---    0.04745   0.05374   0.05388   0.05435   0.05447
     Eigenvalues ---    0.05457   0.05494   0.13534   0.16000   0.16000
     Eigenvalues ---    0.16000   0.16000   0.16000   0.16000   0.16021
     Eigenvalues ---    0.16790   0.16816   0.16820   0.27866   0.28724
     Eigenvalues ---    0.29466   0.32951   0.33373   0.33638   0.33682
     Eigenvalues ---    0.33682   0.33752   0.34062   0.34063   0.34063
     Eigenvalues ---    0.34461
 En-DIIS/RFO-DIIS IScMMF=        0 using points:     3    2
 RFO step:  Lambda=-2.54568341D-06.
 DidBck=F Rises=F RFO-DIIS coefs:    1.07544   -0.07544
 Iteration  1 RMS(Cart)=  0.00072462 RMS(Int)=  0.00000081
 Iteration  2 RMS(Cart)=  0.00000079 RMS(Int)=  0.00000050
 ClnCor:  largest displacement from symmetrization is 6.71D-10 for atom     4.
 Variable       Old X    -DE/DX   Delta X   Delta X   Delta X     New X
                                 (Linear)    (Quad)   (Total)
    R1        2.07915   0.00015   0.00020   0.00031   0.00052   2.07967
    R2        2.90328  -0.00044  -0.00103  -0.00094  -0.00197   2.90131
    R3        2.90234  -0.00027  -0.00082  -0.00039  -0.00121   2.90113
    R4        2.90234  -0.00027  -0.00082  -0.00039  -0.00121   2.90113
    R5        2.07456   0.00016   0.00018   0.00037   0.00055   2.07511
    R6        2.07169   0.00024   0.00005   0.00073   0.00078   2.07247
    R7        2.07169   0.00024   0.00005   0.00073   0.00078   2.07247
    R8        2.07456   0.00015   0.00016   0.00034   0.00051   2.07507
    R9        2.07162   0.00025   0.00007   0.00073   0.00079   2.07241
   R10        2.07088   0.00053  -0.00007   0.00170   0.00163   2.07251
   R11        2.07456   0.00015   0.00016   0.00034   0.00051   2.07507
   R12        2.07088   0.00053  -0.00007   0.00170   0.00163   2.07251
   R13        2.07162   0.00025   0.00007   0.00073   0.00079   2.07241
    A1        1.88109  -0.00001   0.00014  -0.00052  -0.00038   1.88072
    A2        1.88184  -0.00003   0.00002  -0.00097  -0.00095   1.88089
    A3        1.88184  -0.00003   0.00002  -0.00097  -0.00095   1.88089
    A4        1.93887   0.00003  -0.00001   0.00088   0.00086   1.93974
    A5        1.93887   0.00003  -0.00001   0.00088   0.00086   1.93974
    A6        1.93854  -0.00001  -0.00014   0.00054   0.00040   1.93894
    A7        1.93418   0.00010   0.00091  -0.00004   0.00086   1.93504
    A8        1.94330   0.00004  -0.00003   0.00047   0.00043   1.94374
    A9        1.94330   0.00004  -0.00003   0.00047   0.00043   1.94374
   A10        1.87927  -0.00008  -0.00027  -0.00058  -0.00085   1.87842
   A11        1.87927  -0.00008  -0.00027  -0.00058  -0.00085   1.87842
   A12        1.88172  -0.00002  -0.00035   0.00021  -0.00013   1.88158
   A13        1.93442   0.00001   0.00072  -0.00058   0.00015   1.93456
   A14        1.94364   0.00003  -0.00009   0.00036   0.00027   1.94391
   A15        1.94367  -0.00004  -0.00002   0.00006   0.00004   1.94371
   A16        1.87937  -0.00005  -0.00029  -0.00051  -0.00080   1.87857
   A17        1.87828   0.00001  -0.00013   0.00007  -0.00006   1.87822
   A18        1.88161   0.00004  -0.00022   0.00059   0.00037   1.88198
   A19        1.93442   0.00001   0.00072  -0.00058   0.00015   1.93456
   A20        1.94367  -0.00004  -0.00002   0.00006   0.00004   1.94371
   A21        1.94364   0.00003  -0.00009   0.00036   0.00027   1.94391
   A22        1.87828   0.00001  -0.00013   0.00007  -0.00006   1.87822
   A23        1.87937  -0.00005  -0.00029  -0.00051  -0.00080   1.87857
   A24        1.88161   0.00004  -0.00022   0.00059   0.00037   1.88198
    D1        3.14159   0.00000   0.00000   0.00000   0.00000   3.14159
    D2       -1.05028  -0.00001   0.00025  -0.00046  -0.00021  -1.05049
    D3        1.05028   0.00001  -0.00025   0.00046   0.00021   1.05049
    D4        1.08362   0.00002  -0.00010   0.00099   0.00089   1.08451
    D5       -3.10825   0.00001   0.00015   0.00053   0.00068  -3.10757
    D6       -1.00769   0.00003  -0.00034   0.00145   0.00110  -1.00659
    D7       -1.08362  -0.00002   0.00010  -0.00099  -0.00089  -1.08451
    D8        1.00769  -0.00003   0.00034  -0.00145  -0.00110   1.00659
    D9        3.10825  -0.00001  -0.00015  -0.00053  -0.00068   3.10757
   D10        3.13842   0.00000  -0.00021  -0.00004  -0.00025   3.13817
   D11       -1.05295  -0.00004  -0.00015  -0.00083  -0.00098  -1.05393
   D12        1.04796   0.00000  -0.00052   0.00021  -0.00030   1.04766
   D13       -1.08724  -0.00001  -0.00003  -0.00076  -0.00079  -1.08803
   D14        1.00457  -0.00005   0.00002  -0.00154  -0.00152   1.00305
   D15        3.10549  -0.00001  -0.00034  -0.00050  -0.00084   3.10464
   D16        1.08019   0.00005  -0.00016   0.00141   0.00125   1.08144
   D17       -3.11118   0.00001  -0.00011   0.00062   0.00052  -3.11066
   D18       -1.01027   0.00005  -0.00047   0.00167   0.00120  -1.00907
   D19       -3.13842   0.00000   0.00021   0.00004   0.00025  -3.13817
   D20       -1.04796   0.00000   0.00052  -0.00021   0.00030  -1.04766
   D21        1.05295   0.00004   0.00015   0.00083   0.00098   1.05393
   D22        1.08724   0.00001   0.00003   0.00076   0.00079   1.08803
   D23       -3.10549   0.00001   0.00034   0.00050   0.00084  -3.10464
   D24       -1.00457   0.00005  -0.00002   0.00154   0.00152  -1.00305
   D25       -1.08019  -0.00005   0.00016  -0.00141  -0.00125  -1.08144
   D26        1.01027  -0.00005   0.00047  -0.00167  -0.00120   1.00907
   D27        3.11118  -0.00001   0.00011  -0.00062  -0.00052   3.11066
         Item               Value     Threshold  Converged?
 Maximum Force            0.000531     0.000450     NO 
 RMS     Force            0.000143     0.000300     YES
 Maximum Displacement     0.002310     0.001800     NO 
 RMS     Displacement     0.000725     0.001200     YES
 Predicted change in Energy=-2.738408D-06
 GradGradGradGradGradGradGradGradGradGradGradGradGradGradGradGradGradGrad

                          Input orientation:                          
 ---------------------------------------------------------------------
 Center     Atomic      Atomic             Coordinates (Angstroms)
 Number     Number       Type             X           Y           Z
 ---------------------------------------------------------------------
      1          1           0       -0.036553    0.000413    0.000413
      2          6           0       -1.137066    0.001264    0.001264
      3          6           0       -1.603710    1.035528    1.035528
      4          1           0       -2.700126    1.078538    1.078538
      5          1           0       -1.241440    0.787225    2.040449
      6          1           0       -1.241440    2.040449    0.787225
      7          6           0       -1.606327    0.379616   -1.410657
      8          1           0       -2.702855    0.392307   -1.467630
      9          1           0       -1.247190    1.375209   -1.697895
     10          1           0       -1.243460   -0.336694   -2.157672
     11          6           0       -1.606327   -1.410657    0.379616
     12          1           0       -2.702855   -1.467630    0.392307
     13          1           0       -1.243460   -2.157672   -0.336694
     14          1           0       -1.247190   -1.697895    1.375209
 ---------------------------------------------------------------------
                    Distance matrix (angstroms):
                    1          2          3          4          5
     1  H    0.000000
     2  C    1.100513   0.000000
     3  C    2.144507   1.535305   0.000000
     4  H    3.069093   2.182704   1.098102   0.000000
     5  H    2.496513   2.187900   1.096704   1.771412   0.000000
     6  H    2.496513   2.187900   1.096704   1.771412   1.772326
     7  C    2.144553   1.535213   2.532597   2.807309   3.494198
     8  H    3.068859   2.182260   2.808496   2.637024   3.820774
     9  H    2.497990   2.187920   2.777425   3.147637   3.784306
    10  H    2.495515   2.187816   3.494181   3.820709   4.345965
    11  C    2.144553   1.535213   2.532597   2.807309   2.778884
    12  H    3.068859   2.182260   2.808496   2.637024   3.152218
    13  H    2.495515   2.187816   3.494181   3.820709   3.784604
    14  H    2.497990   2.187920   2.777425   3.147637   2.572625
                    6          7          8          9         10
     6  H    0.000000
     7  C    2.778884   0.000000
     8  H    3.152218   1.098080   0.000000
     9  H    2.572625   1.096672   1.771462   0.000000
    10  H    3.784604   1.096724   1.771280   1.772575   0.000000
    11  C    3.494198   2.531829   2.804527   3.493721   2.779010
    12  H    3.820774   2.804527   2.630348   3.817020   3.148212
    13  H    4.345965   2.779010   3.148212   3.786044   2.575251
    14  H    3.784306   3.493721   3.817020   4.346025   3.786044
                   11         12         13         14
    11  C    0.000000
    12  H    1.098080   0.000000
    13  H    1.096724   1.771280   0.000000
    14  H    1.096672   1.771462   1.772575   0.000000
 Stoichiometry    C4H10
 Framework group  CS[SG(C2H2),X(C2H8)]
 Deg. of freedom    20
 Full point group                 CS      NOp   2
 Largest Abelian subgroup         CS      NOp   2
 Largest concise Abelian subgroup CS      NOp   2
                         Standard orientation:                         
 ---------------------------------------------------------------------
 Center     Atomic      Atomic             Coordinates (Angstroms)
 Number     Number       Type             X           Y           Z
 ---------------------------------------------------------------------
      1          1           0        1.473070    0.000313    0.000000
      2          6           0        0.372556    0.000204    0.000000
      3          6           0       -0.095833    1.462316    0.000000
      4          1           0       -1.192321    1.521834    0.000000
      5          1           0        0.265798    1.997758    0.886163
      6          1           0        0.265798    1.997758   -0.886163
      7          6           0       -0.095833   -0.731199   -1.265915
      8          1           0       -1.192322   -0.763819   -1.315174
      9          1           0        0.262707   -0.229888   -2.173013
     10          1           0        0.268269   -1.765492   -1.287625
     11          6           0       -0.095833   -0.731199    1.265915
     12          1           0       -1.192322   -0.763819    1.315174
     13          1           0        0.268269   -1.765492    1.287625
     14          1           0        0.262707   -0.229888    2.173013
 ---------------------------------------------------------------------
 Rotational constants (GHZ):      7.7401041      7.7346676      4.4792802
 Standard basis: 6-31G(d) (6D, 7F)
 There are    49 symmetry adapted cartesian basis functions of A'  symmetry.
 There are    31 symmetry adapted cartesian basis functions of A"  symmetry.
 There are    49 symmetry adapted basis functions of A'  symmetry.
 There are    31 symmetry adapted basis functions of A"  symmetry.
    80 basis functions,   152 primitive gaussians,    80 cartesian basis functions
    17 alpha electrons       17 beta electrons
       nuclear repulsion energy       134.0741442483 Hartrees.
 NAtoms=   14 NActive=   14 NUniq=    9 SFac= 2.42D+00 NAtFMM=   60 NAOKFM=F Big=F
 Integral buffers will be    131072 words long.
 Raffenetti 2 integral format.
 Two-electron integral symmetry is turned on.
 One-electron integrals computed using PRISM.
 NBasis=    80 RedAO= T EigKep=  5.38D-03  NBF=    49    31
 NBsUse=    80 1.00D-06 EigRej= -1.00D+00 NBFU=    49    31
 Initial guess from the checkpoint file:  "/scratch/rpaton/561421/Gau-4564.chk"
 B after Tr=     0.000000    0.000000    0.000000
         Rot=    1.000000    0.000000    0.000000   -0.000017 Ang=   0.00 deg.
 Initial guess orbital symmetries:
       Occupied  (A') (A') (A") (A') (A') (A") (A') (A') (A') (A")
                 (A') (A') (A") (A") (A") (A') (A')
       Virtual   (A') (A') (A') (A') (A') (A') (A') (A') (A') (A')
                 (A') (A') (A') (A') (A') (A') (A') (A') (A') (A')
                 (A') (A') (A') (A') (A') (A') (A') (A') (A') (A')
                 (A') (A') (A') (A') (A') (A') (A') (A') (A") (A")
                 (A") (A") (A") (A") (A") (A") (A") (A") (A") (A")
                 (A") (A") (A") (A") (A") (A") (A") (A") (A") (A")
                 (A") (A") (A")
 Keep R1 ints in memory in symmetry-blocked form, NReq=7933739.
 Requested convergence on RMS density matrix=1.00D-08 within 128 cycles.
 Requested convergence on MAX density matrix=1.00D-06.
 Requested convergence on             energy=1.00D-06.
 No special actions if energy rises.
 SCF Done:  E(RB3LYP) =  -158.458814238     A.U. after    7 cycles
            NFock=  7  Conv=0.55D-08     -V/T= 2.0105
 Calling FoFJK, ICntrl=      2127 FMM=F ISym2X=1 I1Cent= 0 IOpClX= 0 NMat=1 NMatS=1 NMatT=0.
 ***** Axes restored to original set *****
 -------------------------------------------------------------------
 Center     Atomic                   Forces (Hartrees/Bohr)
 Number     Number              X              Y              Z
 -------------------------------------------------------------------
      1        1           0.000036677    0.000001772    0.000001772
      2        6           0.000049376    0.000023768    0.000023768
      3        6           0.000030638   -0.000007448   -0.000007448
      4        1          -0.000018138    0.000010429    0.000010429
      5        1          -0.000018159    0.000005436   -0.000004769
      6        1          -0.000018159   -0.000004769    0.000005436
      7        6          -0.000001998    0.000015328   -0.000058993
      8        1          -0.000007695   -0.000002520   -0.000015019
      9        1          -0.000009561   -0.000018688    0.000004285
     10        1          -0.000011863    0.000016591    0.000029830
     11        6          -0.000001998   -0.000058993    0.000015328
     12        1          -0.000007695   -0.000015019   -0.000002520
     13        1          -0.000011863    0.000029830    0.000016591
     14        1          -0.000009561    0.000004285   -0.000018688
 -------------------------------------------------------------------
 Cartesian Forces:  Max     0.000058993 RMS     0.000021174

 GradGradGradGradGradGradGradGradGradGradGradGradGradGradGradGradGradGrad
 Berny optimization.
 Using GEDIIS/GDIIS optimizer.
 FormGI is forming the generalized inverse of G from B-inverse, IUseBI=4.
 Internal  Forces:  Max     0.000049988 RMS     0.000014528
 Search for a local minimum.
 Step number   4 out of a maximum of   74
 All quantities printed in internal units (Hartrees-Bohrs-Radians)
 Mixed Optimization -- En-DIIS/RFO-DIIS
 Swapping is turned off.
 Update second derivatives using D2CorX and points    1    2    3    4
 DE= -2.60D-06 DEPred=-2.74D-06 R= 9.49D-01
 TightC=F SS=  1.41D+00  RLast= 6.69D-03 DXNew= 8.4853D-01 2.0070D-02
 Trust test= 9.49D-01 RLast= 6.69D-03 DXMaxT set to 5.05D-01
 ITU=  1  1  1  0
     Eigenvalues ---    0.00230   0.00267   0.00267   0.03886   0.04737
     Eigenvalues ---    0.04743   0.05371   0.05385   0.05428   0.05457
     Eigenvalues ---    0.05462   0.05484   0.13046   0.15941   0.16000
     Eigenvalues ---    0.16000   0.16000   0.16000   0.16000   0.16012
     Eigenvalues ---    0.16827   0.16830   0.16837   0.27727   0.28724
     Eigenvalues ---    0.30665   0.32951   0.33120   0.33558   0.33682
     Eigenvalues ---    0.33682   0.33865   0.34063   0.34063   0.34093
     Eigenvalues ---    0.35371
 En-DIIS/RFO-DIIS IScMMF=        0 using points:     4    3    2
 RFO step:  Lambda=-2.66081701D-08.
 DidBck=F Rises=F RFO-DIIS coefs:    0.94201    0.06171   -0.00372
 Iteration  1 RMS(Cart)=  0.00009917 RMS(Int)=  0.00000003
 Iteration  2 RMS(Cart)=  0.00000001 RMS(Int)=  0.00000002
 ClnCor:  largest displacement from symmetrization is 2.69D-11 for atom     4.
 Variable       Old X    -DE/DX   Delta X   Delta X   Delta X     New X
                                 (Linear)    (Quad)   (Total)
    R1        2.07967   0.00004  -0.00002   0.00012   0.00010   2.07977
    R2        2.90131   0.00001   0.00006  -0.00003   0.00003   2.90134
    R3        2.90113   0.00005   0.00003   0.00014   0.00017   2.90130
    R4        2.90113   0.00005   0.00003   0.00014   0.00017   2.90130
    R5        2.07511   0.00002  -0.00002   0.00007   0.00005   2.07516
    R6        2.07247  -0.00001  -0.00004   0.00002  -0.00003   2.07244
    R7        2.07247  -0.00001  -0.00004   0.00002  -0.00003   2.07244
    R8        2.07507   0.00001  -0.00002   0.00005   0.00003   2.07510
    R9        2.07241  -0.00002  -0.00004  -0.00001  -0.00006   2.07236
   R10        2.07251  -0.00004  -0.00010   0.00001  -0.00009   2.07242
   R11        2.07507   0.00001  -0.00002   0.00005   0.00003   2.07510
   R12        2.07251  -0.00004  -0.00010   0.00001  -0.00009   2.07242
   R13        2.07241  -0.00002  -0.00004  -0.00001  -0.00006   2.07236
    A1        1.88072   0.00000   0.00003   0.00005   0.00008   1.88080
    A2        1.88089   0.00000   0.00006   0.00003   0.00008   1.88097
    A3        1.88089   0.00000   0.00006   0.00003   0.00008   1.88097
    A4        1.93974   0.00000  -0.00005   0.00000  -0.00005   1.93969
    A5        1.93974   0.00000  -0.00005   0.00000  -0.00005   1.93969
    A6        1.93894  -0.00001  -0.00003  -0.00010  -0.00013   1.93881
    A7        1.93504   0.00002  -0.00001   0.00007   0.00007   1.93511
    A8        1.94374   0.00001  -0.00003   0.00009   0.00007   1.94380
    A9        1.94374   0.00001  -0.00003   0.00009   0.00007   1.94380
   A10        1.87842  -0.00002   0.00004  -0.00015  -0.00011   1.87831
   A11        1.87842  -0.00002   0.00004  -0.00015  -0.00011   1.87831
   A12        1.88158   0.00000  -0.00001   0.00003   0.00002   1.88160
   A13        1.93456   0.00002   0.00003   0.00008   0.00010   1.93467
   A14        1.94391   0.00000  -0.00002   0.00007   0.00005   1.94396
   A15        1.94371  -0.00001   0.00000  -0.00010  -0.00010   1.94361
   A16        1.87857  -0.00001   0.00003  -0.00004  -0.00001   1.87856
   A17        1.87822  -0.00001   0.00000  -0.00007  -0.00007   1.87815
   A18        1.88198   0.00000  -0.00003   0.00006   0.00003   1.88201
   A19        1.93456   0.00002   0.00003   0.00008   0.00010   1.93467
   A20        1.94371  -0.00001   0.00000  -0.00010  -0.00010   1.94361
   A21        1.94391   0.00000  -0.00002   0.00007   0.00005   1.94396
   A22        1.87822  -0.00001   0.00000  -0.00007  -0.00007   1.87815
   A23        1.87857  -0.00001   0.00003  -0.00004  -0.00001   1.87856
   A24        1.88198   0.00000  -0.00003   0.00006   0.00003   1.88201
    D1        3.14159   0.00000   0.00000   0.00000   0.00000   3.14159
    D2       -1.05049   0.00000   0.00002  -0.00008  -0.00005  -1.05055
    D3        1.05049   0.00000  -0.00002   0.00008   0.00005   1.05055
    D4        1.08451  -0.00001  -0.00006  -0.00006  -0.00012   1.08439
    D5       -3.10757  -0.00001  -0.00003  -0.00014  -0.00017  -3.10775
    D6       -1.00659   0.00000  -0.00008   0.00002  -0.00006  -1.00666
    D7       -1.08451   0.00001   0.00006   0.00006   0.00012  -1.08439
    D8        1.00659   0.00000   0.00008  -0.00002   0.00006   1.00666
    D9        3.10757   0.00001   0.00003   0.00014   0.00017   3.10775
   D10        3.13817   0.00000   0.00000  -0.00008  -0.00007   3.13810
   D11       -1.05393   0.00000   0.00005  -0.00003   0.00002  -1.05392
   D12        1.04766   0.00000  -0.00001   0.00002   0.00001   1.04768
   D13       -1.08803   0.00000   0.00004   0.00000   0.00005  -1.08799
   D14        1.00305   0.00001   0.00009   0.00004   0.00013   1.00318
   D15        3.10464   0.00000   0.00003   0.00010   0.00013   3.10477
   D16        1.08144  -0.00001  -0.00008  -0.00007  -0.00015   1.08129
   D17       -3.11066   0.00000  -0.00004  -0.00002  -0.00006  -3.11072
   D18       -1.00907   0.00000  -0.00009   0.00003  -0.00006  -1.00913
   D19       -3.13817   0.00000   0.00000   0.00008   0.00007  -3.13810
   D20       -1.04766   0.00000   0.00001  -0.00002  -0.00001  -1.04768
   D21        1.05393   0.00000  -0.00005   0.00003  -0.00002   1.05392
   D22        1.08803   0.00000  -0.00004   0.00000  -0.00005   1.08799
   D23       -3.10464   0.00000  -0.00003  -0.00010  -0.00013  -3.10477
   D24       -1.00305  -0.00001  -0.00009  -0.00004  -0.00013  -1.00318
   D25       -1.08144   0.00001   0.00008   0.00007   0.00015  -1.08129
   D26        1.00907   0.00000   0.00009  -0.00003   0.00006   1.00913
   D27        3.11066   0.00000   0.00004   0.00002   0.00006   3.11072
         Item               Value     Threshold  Converged?
 Maximum Force            0.000050     0.000450     YES
 RMS     Force            0.000015     0.000300     YES
 Maximum Displacement     0.000383     0.001800     YES
 RMS     Displacement     0.000099     0.001200     YES
 Predicted change in Energy=-2.939265D-08
 Optimization completed.
    -- Stationary point found.
                           ----------------------------
                           !   Optimized Parameters   !
                           ! (Angstroms and Degrees)  !
 --------------------------                            --------------------------
 ! Name  Definition              Value          Derivative Info.                !
 --------------------------------------------------------------------------------
 ! R1    R(1,2)                  1.1005         -DE/DX =    0.0                 !
 ! R2    R(2,3)                  1.5353         -DE/DX =    0.0                 !
 ! R3    R(2,7)                  1.5352         -DE/DX =    0.0                 !
 ! R4    R(2,11)                 1.5352         -DE/DX =    0.0                 !
 ! R5    R(3,4)                  1.0981         -DE/DX =    0.0                 !
 ! R6    R(3,5)                  1.0967         -DE/DX =    0.0                 !
 ! R7    R(3,6)                  1.0967         -DE/DX =    0.0                 !
 ! R8    R(7,8)                  1.0981         -DE/DX =    0.0                 !
 ! R9    R(7,9)                  1.0967         -DE/DX =    0.0                 !
 ! R10   R(7,10)                 1.0967         -DE/DX =    0.0                 !
 ! R11   R(11,12)                1.0981         -DE/DX =    0.0                 !
 ! R12   R(11,13)                1.0967         -DE/DX =    0.0                 !
 ! R13   R(11,14)                1.0967         -DE/DX =    0.0                 !
 ! A1    A(1,2,3)              107.7572         -DE/DX =    0.0                 !
 ! A2    A(1,2,7)              107.7669         -DE/DX =    0.0                 !
 ! A3    A(1,2,11)             107.7669         -DE/DX =    0.0                 !
 ! A4    A(3,2,7)              111.1387         -DE/DX =    0.0                 !
 ! A5    A(3,2,11)             111.1387         -DE/DX =    0.0                 !
 ! A6    A(7,2,11)             111.093          -DE/DX =    0.0                 !
 ! A7    A(2,3,4)              110.8699         -DE/DX =    0.0                 !
 ! A8    A(2,3,5)              111.3679         -DE/DX =    0.0                 !
 ! A9    A(2,3,6)              111.3679         -DE/DX =    0.0                 !
 ! A10   A(4,3,5)              107.6257         -DE/DX =    0.0                 !
 ! A11   A(4,3,6)              107.6257         -DE/DX =    0.0                 !
 ! A12   A(5,3,6)              107.8066         -DE/DX =    0.0                 !
 ! A13   A(2,7,8)              110.8424         -DE/DX =    0.0                 !
 ! A14   A(2,7,9)              111.3779         -DE/DX =    0.0                 !
 ! A15   A(2,7,10)             111.3665         -DE/DX =    0.0                 !
 ! A16   A(8,7,9)              107.634          -DE/DX =    0.0                 !
 ! A17   A(8,7,10)             107.6142         -DE/DX =    0.0                 !
 ! A18   A(9,7,10)             107.8295         -DE/DX =    0.0                 !
 ! A19   A(2,11,12)            110.8424         -DE/DX =    0.0                 !
 ! A20   A(2,11,13)            111.3665         -DE/DX =    0.0                 !
 ! A21   A(2,11,14)            111.3779         -DE/DX =    0.0                 !
 ! A22   A(12,11,13)           107.6142         -DE/DX =    0.0                 !
 ! A23   A(12,11,14)           107.634          -DE/DX =    0.0                 !
 ! A24   A(13,11,14)           107.8295         -DE/DX =    0.0                 !
 ! D1    D(1,2,3,4)            180.0            -DE/DX =    0.0                 !
 ! D2    D(1,2,3,5)            -60.1887         -DE/DX =    0.0                 !
 ! D3    D(1,2,3,6)             60.1887         -DE/DX =    0.0                 !
 ! D4    D(7,2,3,4)             62.1379         -DE/DX =    0.0                 !
 ! D5    D(7,2,3,5)           -178.0508         -DE/DX =    0.0                 !
 ! D6    D(7,2,3,6)            -57.6734         -DE/DX =    0.0                 !
 ! D7    D(11,2,3,4)           -62.1379         -DE/DX =    0.0                 !
 ! D8    D(11,2,3,5)            57.6734         -DE/DX =    0.0                 !
 ! D9    D(11,2,3,6)           178.0508         -DE/DX =    0.0                 !
 ! D10   D(1,2,7,8)            179.8041         -DE/DX =    0.0                 !
 ! D11   D(1,2,7,9)            -60.3858         -DE/DX =    0.0                 !
 ! D12   D(1,2,7,10)            60.0265         -DE/DX =    0.0                 !
 ! D13   D(3,2,7,8)            -62.3397         -DE/DX =    0.0                 !
 ! D14   D(3,2,7,9)             57.4704         -DE/DX =    0.0                 !
 ! D15   D(3,2,7,10)           177.8828         -DE/DX =    0.0                 !
 ! D16   D(11,2,7,8)            61.962          -DE/DX =    0.0                 !
 ! D17   D(11,2,7,9)          -178.2279         -DE/DX =    0.0                 !
 ! D18   D(11,2,7,10)          -57.8155         -DE/DX =    0.0                 !
 ! D19   D(1,2,11,12)         -179.8041         -DE/DX =    0.0                 !
 ! D20   D(1,2,11,13)          -60.0265         -DE/DX =    0.0                 !
 ! D21   D(1,2,11,14)           60.3858         -DE/DX =    0.0                 !
 ! D22   D(3,2,11,12)           62.3397         -DE/DX =    0.0                 !
 ! D23   D(3,2,11,13)         -177.8828         -DE/DX =    0.0                 !
 ! D24   D(3,2,11,14)          -57.4704         -DE/DX =    0.0                 !
 ! D25   D(7,2,11,12)          -61.962          -DE/DX =    0.0                 !
 ! D26   D(7,2,11,13)           57.8155         -DE/DX =    0.0                 !
 ! D27   D(7,2,11,14)          178.2279         -DE/DX =    0.0                 !
 --------------------------------------------------------------------------------
 GradGradGradGradGradGradGradGradGradGradGradGradGradGradGradGradGradGrad

                          Input orientation:                          
 ---------------------------------------------------------------------
 Center     Atomic      Atomic             Coordinates (Angstroms)
 Number     Number       Type             X           Y           Z
 ---------------------------------------------------------------------
      1          1           0       -0.036553    0.000413    0.000413
      2          6           0       -1.137066    0.001264    0.001264
      3          6           0       -1.603710    1.035528    1.035528
      4          1           0       -2.700126    1.078538    1.078538
      5          1           0       -1.241440    0.787225    2.040449
      6          1           0       -1.241440    2.040449    0.787225
      7          6           0       -1.606327    0.379616   -1.410657
      8          1           0       -2.702855    0.392307   -1.467630
      9          1           0       -1.247190    1.375209   -1.697895
     10          1           0       -1.243460   -0.336694   -2.157672
     11          6           0       -1.606327   -1.410657    0.379616
     12          1           0       -2.702855   -1.467630    0.392307
     13          1           0       -1.243460   -2.157672   -0.336694
     14          1           0       -1.247190   -1.697895    1.375209
 ---------------------------------------------------------------------
                    Distance matrix (angstroms):
                    1          2          3          4          5
     1  H    0.000000
     2  C    1.100513   0.000000
     3  C    2.144507   1.535305   0.000000
     4  H    3.069093   2.182704   1.098102   0.000000
     5  H    2.496513   2.187900   1.096704   1.771412   0.000000
     6  H    2.496513   2.187900   1.096704   1.771412   1.772326
     7  C    2.144553   1.535213   2.532597   2.807309   3.494198
     8  H    3.068859   2.182260   2.808496   2.637024   3.820774
     9  H    2.497990   2.187920   2.777425   3.147637   3.784306
    10  H    2.495515   2.187816   3.494181   3.820709   4.345965
    11  C    2.144553   1.535213   2.532597   2.807309   2.778884
    12  H    3.068859   2.182260   2.808496   2.637024   3.152218
    13  H    2.495515   2.187816   3.494181   3.820709   3.784604
    14  H    2.497990   2.187920   2.777425   3.147637   2.572625
                    6          7          8          9         10
     6  H    0.000000
     7  C    2.778884   0.000000
     8  H    3.152218   1.098080   0.000000
     9  H    2.572625   1.096672   1.771462   0.000000
    10  H    3.784604   1.096724   1.771280   1.772575   0.000000
    11  C    3.494198   2.531829   2.804527   3.493721   2.779010
    12  H    3.820774   2.804527   2.630348   3.817020   3.148212
    13  H    4.345965   2.779010   3.148212   3.786044   2.575251
    14  H    3.784306   3.493721   3.817020   4.346025   3.786044
                   11         12         13         14
    11  C    0.000000
    12  H    1.098080   0.000000
    13  H    1.096724   1.771280   0.000000
    14  H    1.096672   1.771462   1.772575   0.000000
 Stoichiometry    C4H10
 Framework group  CS[SG(C2H2),X(C2H8)]
 Deg. of freedom    20
 Full point group                 CS      NOp   2
 Largest Abelian subgroup         CS      NOp   2
 Largest concise Abelian subgroup CS      NOp   2
                         Standard orientation:                         
 ---------------------------------------------------------------------
 Center     Atomic      Atomic             Coordinates (Angstroms)
 Number     Number       Type             X           Y           Z
 ---------------------------------------------------------------------
      1          1           0        1.473070    0.000313    0.000000
      2          6           0        0.372556    0.000204    0.000000
      3          6           0       -0.095833    1.462316    0.000000
      4          1           0       -1.192321    1.521834    0.000000
      5          1           0        0.265798    1.997758    0.886163
      6          1           0        0.265798    1.997758   -0.886163
      7          6           0       -0.095833   -0.731199   -1.265915
      8          1           0       -1.192322   -0.763819   -1.315174
      9          1           0        0.262707   -0.229888   -2.173013
     10          1           0        0.268269   -1.765492   -1.287625
     11          6           0       -0.095833   -0.731199    1.265915
     12          1           0       -1.192322   -0.763819    1.315174
     13          1           0        0.268269   -1.765492    1.287625
     14          1           0        0.262707   -0.229888    2.173013
 ---------------------------------------------------------------------
 Rotational constants (GHZ):      7.7401041      7.7346676      4.4792802

 **********************************************************************

            Population analysis using the SCF density.

 **********************************************************************

 Orbital symmetries:
       Occupied  (A') (A') (A") (A') (A') (A') (A") (A') (A') (A')
                 (A") (A') (A") (A") (A') (A") (A')
       Virtual   (A') (A') (A') (A") (A') (A") (A') (A') (A") (A")
                 (A') (A') (A") (A') (A") (A') (A") (A') (A') (A')
                 (A") (A') (A') (A") (A") (A') (A') (A") (A") (A')
                 (A") (A') (A') (A') (A") (A') (A") (A') (A') (A")
                 (A') (A") (A') (A") (A") (A') (A') (A') (A") (A')
                 (A') (A') (A") (A") (A') (A") (A') (A') (A") (A')
                 (A") (A') (A')
 The electronic state is 1-A'.
 Alpha  occ. eigenvalues --  -10.18493 -10.16855 -10.16854 -10.16853  -0.79482
 Alpha  occ. eigenvalues --   -0.67636  -0.67632  -0.55476  -0.45677  -0.42488
 Alpha  occ. eigenvalues --   -0.42487  -0.37872  -0.37859  -0.35891  -0.32242
 Alpha  occ. eigenvalues --   -0.32239  -0.31762
 Alpha virt. eigenvalues --    0.08600   0.13724   0.15434   0.15434   0.15853
 Alpha virt. eigenvalues --    0.15856   0.17608   0.19674   0.19676   0.22651
 Alpha virt. eigenvalues --    0.22759   0.25996   0.26011   0.51327   0.51330
 Alpha virt. eigenvalues --    0.52234   0.53920   0.53935   0.64106   0.71806
 Alpha virt. eigenvalues --    0.72228   0.72229   0.73925   0.73954   0.86928
 Alpha virt. eigenvalues --    0.87753   0.89676   0.89691   0.89910   0.91754
 Alpha virt. eigenvalues --    0.94035   0.94046   0.96708   0.98775   0.98776
 Alpha virt. eigenvalues --    1.01574   1.42733   1.42777   1.44678   1.44773
 Alpha virt. eigenvalues --    1.64960   1.73172   1.79328   1.79352   1.95112
 Alpha virt. eigenvalues --    1.95160   2.00964   2.08369   2.08414   2.13580
 Alpha virt. eigenvalues --    2.24081   2.24651   2.24662   2.27061   2.48409
 Alpha virt. eigenvalues --    2.50877   2.50904   2.70220   2.70240   4.14850
 Alpha virt. eigenvalues --    4.29038   4.29040   4.55718
          Condensed to atoms (all electrons):
               1          2          3          4          5          6
     1  H    0.638983   0.383683  -0.047564   0.005920  -0.003434  -0.003434
     2  C    0.383683   4.795245   0.388172  -0.034620  -0.029758  -0.029758
     3  C   -0.047564   0.388172   5.098599   0.371973   0.370443   0.370443
     4  H    0.005920  -0.034620   0.371973   0.584877  -0.031828  -0.031828
     5  H   -0.003434  -0.029758   0.370443  -0.031828   0.581445  -0.030541
     6  H   -0.003434  -0.029758   0.370443  -0.031828  -0.030541   0.581445
     7  C   -0.047565   0.388143  -0.054169  -0.005634   0.005216  -0.003715
     8  H    0.005922  -0.034602  -0.005627   0.005000  -0.000044  -0.000241
     9  H   -0.003398  -0.029809  -0.003724  -0.000240  -0.000044   0.004024
    10  H   -0.003470  -0.029768   0.005217  -0.000043  -0.000187  -0.000045
    11  C   -0.047565   0.388143  -0.054169  -0.005634  -0.003715   0.005216
    12  H    0.005922  -0.034602  -0.005627   0.005000  -0.000241  -0.000044
    13  H   -0.003470  -0.029768   0.005217  -0.000043  -0.000045  -0.000187
    14  H   -0.003398  -0.029809  -0.003724  -0.000240   0.004024  -0.000044
               7          8          9         10         11         12
     1  H   -0.047565   0.005922  -0.003398  -0.003470  -0.047565   0.005922
     2  C    0.388143  -0.034602  -0.029809  -0.029768   0.388143  -0.034602
     3  C   -0.054169  -0.005627  -0.003724   0.005217  -0.054169  -0.005627
     4  H   -0.005634   0.005000  -0.000240  -0.000043  -0.005634   0.005000
     5  H    0.005216  -0.000044  -0.000044  -0.000187  -0.003715  -0.000241
     6  H   -0.003715  -0.000241   0.004024  -0.000045   0.005216  -0.000044
     7  C    5.098611   0.371966   0.370452   0.370461  -0.054266  -0.005711
     8  H    0.371966   0.584878  -0.031813  -0.031842  -0.005711   0.005068
     9  H    0.370452  -0.031813   0.581442  -0.030523   0.005222  -0.000042
    10  H    0.370461  -0.031842  -0.030523   0.581465  -0.003667  -0.000242
    11  C   -0.054266  -0.005711   0.005222  -0.003667   5.098611   0.371966
    12  H   -0.005711   0.005068  -0.000042  -0.000242   0.371966   0.584878
    13  H   -0.003667  -0.000242  -0.000046   0.003997   0.370461  -0.031842
    14  H    0.005222  -0.000042  -0.000187  -0.000046   0.370452  -0.031813
              13         14
     1  H   -0.003470  -0.003398
     2  C   -0.029768  -0.029809
     3  C    0.005217  -0.003724
     4  H   -0.000043  -0.000240
     5  H   -0.000045   0.004024
     6  H   -0.000187  -0.000044
     7  C   -0.003667   0.005222
     8  H   -0.000242  -0.000042
     9  H   -0.000046  -0.000187
    10  H    0.003997  -0.000046
    11  C    0.370461   0.370452
    12  H   -0.031842  -0.031813
    13  H    0.581465  -0.030523
    14  H   -0.030523   0.581442
 Mulliken charges:
               1
     1  H    0.122870
     2  C   -0.060892
     3  C   -0.435460
     4  H    0.137339
     5  H    0.138709
     6  H    0.138709
     7  C   -0.435344
     8  H    0.137328
     9  H    0.138685
    10  H    0.138694
    11  C   -0.435344
    12  H    0.137328
    13  H    0.138694
    14  H    0.138685
 Sum of Mulliken charges =   0.00000
 Mulliken charges with hydrogens summed into heavy atoms:
               1
     2  C    0.061979
     3  C   -0.020704
     7  C   -0.020638
    11  C   -0.020638
 Electronic spatial extent (au):  <R**2>=            355.6815
 Charge=              0.0000 electrons
 Dipole moment (field-independent basis, Debye):
    X=              0.0856    Y=             -0.0001    Z=              0.0000  Tot=              0.0856
 Quadrupole moment (field-independent basis, Debye-Ang):
   XX=            -27.9669   YY=            -28.4608   ZZ=            -28.4636
   XY=              0.0004   XZ=              0.0000   YZ=              0.0000
 Traceless Quadrupole moment (field-independent basis, Debye-Ang):
   XX=              0.3302   YY=             -0.1637   ZZ=             -0.1665
   XY=              0.0004   XZ=              0.0000   YZ=              0.0000
 Octapole moment (field-independent basis, Debye-Ang**2):
  XXX=             -0.8539  YYY=             -1.6471  ZZZ=              0.0000  XYY=              1.0955
  XXY=             -0.0057  XXZ=              0.0000  XZZ=              1.0919  YZZ=              1.6553
  YYZ=              0.0000  XYZ=              0.0000
 Hexadecapole moment (field-independent basis, Debye-Ang**3):
 XXXX=            -63.2321 YYYY=           -212.8227 ZZZZ=           -212.6561 XXXY=              0.0004
 XXXZ=              0.0000 YYYX=             -0.7546 YYYZ=              0.0000 ZZZX=              0.0000
 ZZZY=              0.0000 XXYY=            -46.8804 XXZZ=            -46.8842 YYZZ=            -70.9068
 XXYZ=              0.0000 YYXZ=              0.0000 ZZXY=              0.7399
 N-N= 1.340741442483D+02 E-N=-6.335098498601D+02  KE= 1.568058497860D+02
 Symmetry A'   KE= 1.137240122765D+02
 Symmetry A"   KE= 4.308183750951D+01
 1\1\GINC-COMP134\FOpt\RB3LYP\6-31G(d)\C4H10\RPATON\04-Apr-2016\0\\# op
 t B3LYP/6-31G(d)\\title\\0,1\H,-0.0365531041,0.0004125527,0.0004125527
 \C,-1.1370658008,0.0012638798,0.0012638798\C,-1.6037101172,1.035527917
 4,1.0355279174\H,-2.7001263528,1.0785381652,1.0785381652\H,-1.24144025
 71,0.7872250013,2.0404488565\H,-1.2414402571,2.0404488565,0.7872250013
 \C,-1.606327474,0.3796161729,-1.4106574574\H,-2.702854764,0.3923069653
 ,-1.4676300838\H,-1.2471897221,1.3752090067,-1.6978949063\H,-1.2434600
 953,-0.3366943817,-2.1576716851\C,-1.606327474,-1.4106574574,0.3796161
 729\H,-2.702854764,-1.4676300838,0.3923069653\H,-1.2434600953,-2.15767
 16851,-0.3366943818\H,-1.2471897221,-1.6978949063,1.3752090067\\Versio
 n=ES64L-G09RevD.01\State=1-A'\HF=-158.4588142\RMSD=5.463e-09\RMSF=2.11
 7e-05\Dipole=0.0336751,-0.000051,-0.000051\Quadrupole=0.2455031,-0.122
 7516,-0.1227516,-0.0001014,-0.0001014,0.0010573\PG=CS [SG(C2H2),X(C2H8
 )]\\@


 I LOVE THOSE WHO LONG FOR THE IMPOSSIBLE.

                                 -- GOETHE
 Job cpu time:       0 days  0 hours  1 minutes 26.7 seconds.
 File lengths (MBytes):  RWF=      6 Int=      0 D2E=      0 Chk=      2 Scr=      1
 Normal termination of Gaussian 09 at Mon Apr  4 03:02:28 2016.
